LAMMPS data file via write_data, version 29 Aug 2024, timestep = 11000000, units = real

2486 atoms
7 atom types
1757 bonds
5 bond types
1028 angles
3 angle types
897 dihedrals
3 dihedral types

-0.3112658631310339 39.252385863129405 xlo xhi
0.02712267714698413 38.709987322849095 ylo yhi
0.1273525587045512 38.310867441313235 zlo zhi

Masses

1 1.008
2 15.011
3 15.999
4 1.008
5 14.011
6 15.011
7 15.999

Pair Coeffs # lj/cut/coul/long

1 0 0.4
2 0.195 3.75
3 0.185 3.02
4 0 0.4
5 0.0914 3.95
6 0.195 3.75
7 0.185 3.02

Bond Coeffs # harmonic

1 1000 1.43
2 1000 0.945
3 1000 1.54
4 1000 1.43
5 1000 0.945

Angle Coeffs # harmonic

1 55.045 108.5
2 55.0452 108.5
3 50.0772 109.47

Dihedral Coeffs # fourier

1 3 0.416953 1 0 -0.0579664 2 180 0.373453 3 0
2 3 0 1 0 0 2 180 0 3 0
3 3 0 1 0 0 2 180 0 3 0

Atoms # full

725 206 7 -0.7 2.3891031824585887 5.402362692629241 7.221499490320534 -3 -1 2
1549 441 4 0.435 1.0142816847450327 5.215503563987791 2.2841157136046837 0 4 0
724 206 5 0.265 2.3949667825444143 5.734237955367707 8.616616604571236 -3 -1 2
1273 364 6 0 8.148357666949424 6.268242714075692 11.337298784933004 1 -2 -1
2330 677 1 0.435 9.379713119813008 3.9623832806882144 5.750503397157861 -1 1 1
2111 604 1 0.435 1.1348791240220413 2.889969767289212 12.635970659708828 0 -3 -2
2056 586 3 -0.7 0.8806276927465924 6.398748975911039 3.4016564609226396 4 1 2
2000 570 2 0.265 9.421052924541664 5.307405127946537 1.3973559434691194 -1 1 2
626 177 1 0.435 4.3329601718863 1.1423150979221561 1.8236001400485735 -3 -2 0
642 182 6 0 6.637213689077827 0.6754712472547796 7.092762966212941 0 0 -2
2055 586 2 0.265 1.527622845643106 7.130326792799302 4.463121423318796 4 1 2
345 100 2 0.265 5.344742374819214 3.7820045015265453 11.569665598954364 1 3 -1
2057 586 1 0.435 0.28657142187914186 6.986453571168893 2.9857340247448376 4 1 2
2203 635 3 -0.7 1.0051583175134107 0.34320410045282757 7.396937961276232 4 7 -1
1547 441 5 0.265 1.4133332716119258 5.074873167442074 0.38141743589316446 0 4 0
2353 685 3 -0.7 7.0577639835908075 8.108243133624997 6.01151529303779 4 -2 -4
1270 364 5 0.265 7.238210012047914 7.500393496726279 11.298759286942786 1 -2 -1
2354 685 1 0.435 6.999754204229841 8.39310303614747 5.104608224259139 4 -2 -4
727 206 6 0 1.449248894411688 4.7597086143381 9.327456312928847 -3 -1 2
1548 441 7 -0.7 1.113473984200998 4.493751821946218 1.6770688150088233 0 4 0
640 182 7 -0.7 5.290280407929815 0.8844332387117025 8.977020810756855 0 0 -2
2352 685 2 0.265 5.769272388100699 8.230758804502107 6.627975415251461 4 -2 -4
361 104 6 0 5.348275785749205 7.453563702843592 2.9433607526190833 -2 0 -1
98 28 5 0.265 -0.13175068374474028 2.3149941739618036 3.5945291715669496 4 -1 0
1977 563 1 0.435 8.598710715501694 7.754957137857474 6.25124224242636 3 -3 -2
2329 677 3 -0.7 9.481137764020636 3.4558024367816973 4.928333120322477 -1 1 1
1211 347 1 0.435 3.48319943723974 4.884740029966573 5.923597773370207 2 -1 2
726 206 4 0.435 1.4697192333925695 5.409777183697502 6.952394165245233 -3 -1 2
1210 347 3 -0.7 4.342755002625722 4.757095835225167 5.545333369809194 2 -1 2
347 100 1 0.435 5.01757950985763 5.686906456827209 12.177435403254455 1 3 -1
33 9 4 0.435 0.1602509710417367 1.941572124840687 10.693134268133642 -1 2 2
625 177 3 -0.7 4.433795979197668 1.7938805828870508 1.1016510183169945 -3 -2 0
1209 347 2 0.265 4.32550131356092 3.657410530335115 4.659521113044924 2 -1 2
1271 364 7 -0.7 5.954108041002935 7.058013730299882 11.72075525787532 1 -2 -1
639 182 5 0.265 5.579150400645246 1.561764066158929 7.764444205185866 0 0 -2
469 134 6 0 0.261583355153831 8.731591459209584 12.122649228490193 0 0 2
2202 635 2 0.265 2.08527384059279 1.2693821999373458 7.107646832701956 4 7 -1
2204 635 1 0.435 0.6358512091053039 0.6363111146732634 8.202633510497584 4 7 -1
991 284 7 -0.7 8.859440000867657 4.64152899098525 7.201405331579698 -2 -2 1
100 28 4 0.435 -0.13291456226109488 3.5305385075247724 2.051122258143842 4 -1 0
1921 547 3 -0.7 1.8036265342840325 4.640623740496815 12.580351005942331 -2 5 -2
358 104 5 0.265 6.395687484837404 8.451293355397786 2.428614895335206 -2 0 -1
1922 547 1 0.435 2.7480561064705253 4.615463666417822 12.451903503926284 -2 5 -2
1272 364 4 0.435 5.4329720743685845 7.7673988820275826 12.118890755280033 1 -2 -1
359 104 7 -0.7 7.360135849132293 8.786544276388938 3.4231921046530807 -2 0 -1
32 9 7 -0.7 -0.061185331499501006 1.6585536508869285 9.824146523553713 -1 2 2
826 235 2 0.265 8.858688982679254 0.23438484680847763 0.28964727977730426 1 4 2
2328 677 2 0.265 8.188556926941132 3.014409536921098 4.469718339100957 -1 1 1
624 177 2 0.265 3.0717300126225484 2.1681953574855957 0.8579471594689633 -3 -2 0
360 104 4 0.435 8.135933470861296 9.193703136997975 2.9802377950552104 -2 0 -1
1976 563 3 -0.7 9.472261566711861 7.34277224020141 6.418694453770083 3 -3 -2
111 31 7 -0.7 4.5503461024487954 9.188655651983112 12.589623644004664 0 0 4
2110 604 3 -0.7 0.49156296639772035 2.1756500119392035 12.83003798333846 0 -3 -2
346 100 3 -0.7 4.6157796663530695 4.796705823231487 12.300871110083634 1 3 -1
510 146 7 -0.7 -0.30020938333650604 5.749975782585394 6.658857663372667 0 3 2
2376 693 2 0.265 3.5590823474090287 0.3203824614350996 12.271313202810019 1 1 6
992 284 4 0.435 8.773784834418576 5.575170589024041 6.995260262301096 -2 -2 1
990 284 5 0.265 9.56857470694798 4.4716920552262005 8.45157081876966 -2 -2 1
641 182 4 0.435 4.82581773081634 0.07462699431368754 8.843851828526537 0 0 -2
112 31 4 0.435 3.627261345305836 9.457292307466737 12.755998619134427 0 0 4
2426 709 1 0.435 5.687907317031956 2.6449199897341997 0.26189411918224353 -1 0 0
2109 604 2 0.265 0.6482775115169884 1.9270312697398946 14.189299620117342 0 -3 -2
303 87 4 0.435 4.748460610548743 1.170445049630527 19.66260318855414 1 -3 -1
1860 530 4 0.435 5.090291874970137 3.4503544290369312 19.837806481179946 4 -1 1
1187 339 6 0 0.9519289555041479 2.3451582418764647 18.74186146474884 -1 1 5
1906 543 3 -0.7 8.181548949083421 3.4695281119123123 18.069828794957697 2 -6 -3
1318 377 4 0.435 5.922565364056181 0.7771810875460539 17.547118864854465 3 5 -1
304 87 6 0 4.187429420789408 1.0017153644878771 22.876052501188223 1 -3 -1
1064 304 6 0 -0.22304936961663419 7.448324716710534 16.67974964346252 -2 -1 -2
387 111 4 0.435 1.553752768285601 9.582397170543501 22.87198750671052 2 5 -1
1481 423 2 0.265 8.031480744471471 2.096348969192438 21.699797212353833 -1 -1 -3
1620 461 3 -0.7 2.2654451581859867 5.788583412959515 24.972333751387918 4 2 0
2242 648 3 -0.7 8.5046830327723 8.1033671434104 18.88224609831055 4 2 2
850 241 1 0.435 1.8393651105182878 7.056147027246461 23.8446160543588 0 3 0
1317 377 7 -0.7 5.026381444165517 0.6225068619948977 17.88300375422507 3 5 -1
1859 530 7 -0.7 4.773277787617878 4.243000162461208 19.47267345206558 4 -1 1
1483 423 1 0.435 6.568596687581197 1.9627445148263625 20.40062398526088 -1 -1 -3
560 160 5 0.265 5.725070885212785 8.842481915135059 24.209089695358117 -4 5 0
225 65 4 0.435 0.05286784412236489 3.305428252285758 22.47643297052908 -1 -1 0
1907 543 1 0.435 7.871550221630606 3.412496848555878 18.98199632081065 2 -6 -3
1920 547 2 0.265 1.6142201981450952 5.606482114617924 13.632387332827621 -2 5 -2
302 87 7 -0.7 4.784030791769743 1.603680514029036 20.497461431919426 1 -3 -1
1619 461 2 0.265 2.3429103658560972 4.450963929615662 24.504205302541187 4 2 0
2241 648 2 0.265 7.37653088893237 7.595565495080179 19.580739810078683 4 2 2
301 87 5 0.265 4.054255648581536 0.728500870439141 21.363871813198553 1 -3 -1
968 277 1 0.435 7.829505418493733 2.271335242519167 16.797376511300918 2 -2 -6
849 241 3 -0.7 1.4512115294555274 7.6141422444978915 23.17134186500386 0 3 0
1788 509 4 0.435 4.471432758875764 5.570999274439997 18.052779329544205 2 1 -1
848 241 2 0.265 0.059037362837684515 7.628743339342238 23.45522521467926 0 3 0
1482 423 3 -0.7 7.359040712408357 2.479453547503978 20.49071107612331 -1 -1 -3
1905 543 2 0.265 8.845851930729225 4.700049865840818 17.85740070990886 2 -6 -3
1786 509 5 0.265 4.7157368148752585 5.570167354543845 16.12601642681673 2 1 -1
918 262 6 0 8.851764680192046 6.20891258585801 23.40873061723996 2 3 -4
1184 339 5 0.265 0.90200745828106 2.3034392828425774 20.2621056346434 -1 1 5
1787 509 7 -0.7 4.608444543544996 6.235212932696639 17.38179121784525 2 1 -1
1185 339 7 -0.7 0.5990409453826705 3.5804763778097737 20.839695391645442 -1 1 5
2243 648 1 0.435 8.741795222040011 8.919372570153252 19.315997965804954 4 2 2
1858 530 5 0.265 3.8590923850145655 4.8324516961272765 20.380348214506263 4 -1 1
1061 304 5 0.265 0.18752109440880466 8.68089048358379 15.88669662652806 -2 -1 -2
967 277 3 -0.7 7.459375246092632 1.5000834663655704 16.40231853858832 2 -2 -6
1789 509 6 0 6.094683698154792 6.1057482679287824 15.71730477076474 2 1 -1
1861 530 6 0 4.826429003922698 5.343688772722266 21.49951096576356 4 -1 1
563 160 6 0 6.0553049211757175 8.992627348668373 22.67228747129192 -4 5 0
966 277 2 0.265 7.20509694355498 1.7013425137912357 15.00396666075565 2 -2 -6
1240 356 5 0.265 9.260218257569475 8.530536715134096 15.199399018025924 0 0 3
388 111 6 0 1.372648970671 9.306817737821369 20.12999171711586 2 5 -1
1316 377 5 0.265 4.307983739750274 0.12394983857317557 16.759501433866355 3 5 -1
1186 339 4 0.435 -0.08554010489442815 3.931970544677679 20.307078733142205 -1 1 5
395 114 2 0.265 4.596129722664957 5.159956765607711 27.246726058386734 -3 2 -1
200 58 3 -0.7 2.5183334065547522 9.42344675958742 28.24363450186339 1 -1 -3
1984 565 6 0 1.5168605244780942 8.99590584897761 37.67417918761847 0 1 1
1660 472 3 -0.7 6.497580459609773 1.6957119507906373 35.28033976326955 1 5 0
1659 472 2 0.265 6.584256301966442 2.685536176371874 34.26216840968513 1 5 0
1550 441 6 0 0.31959138404565535 4.672922687976935 37.60323741510385 0 4 -1
201 58 1 0.435 1.591581686852246 9.602351880950163 28.477732617736752 1 -1 -3
253 73 7 -0.7 5.018616927772881 8.170795565252014 33.70013646912026 1 -3 -2
1945 554 2 0.265 2.067248811882384 6.444414176234137 33.83434866368374 1 2 -3
1703 484 1 0.435 8.958215535146067 9.286248284868407 31.19653042990329 -1 1 -1
1369 391 7 -0.7 5.98342238091758 0.7258725495131657 27.999964746761574 2 -4 -2
1817 517 3 -0.7 5.295721086249508 5.5668400370396345 32.89526032909935 -1 -1 0
1947 554 1 0.435 3.4671164627591398 5.3077808432951255 33.47026271154474 1 2 -3
1818 517 1 0.435 5.229833173018336 6.4720830090532475 32.97840339687717 -1 -1 0
252 73 5 0.265 5.3546963001338215 8.791844359188543 34.96318271771293 1 -3 -2
1981 565 5 0.265 0.2830092367002037 9.137077676232579 36.77081863128406 0 1 1
1068 306 2 0.265 5.6055502321431145 8.192527277311317 29.834817681944628 0 -3 0
1618 460 1 0.435 3.202829463704917 6.348210856227343 30.048210860333516 1 2 -3
1661 472 1 0.435 6.306875313847173 2.216347801387532 36.07300534968238 1 5 0
1166 333 1 0.435 1.7956346233654497 0.5996834937136843 28.352130295042564 0 2 1
1585 451 2 0.265 2.592992096751965 1.9929908877055762 35.06884899050184 -3 2 -6
1586 451 3 -0.7 1.8076723677086575 2.8067454580642366 34.1728672555988 -3 2 -6
1164 333 2 0.265 2.65796928975233 1.2269222433674984 26.786560523679654 0 2 1
1070 306 1 0.435 3.8633745165323585 8.576135834545031 28.97797261112184 0 -3 0
1371 391 6 0 7.318997025854363 1.7877675276469114 26.29178434579847 2 -4 -2
1587 451 1 0.435 2.1561501741270055 3.683800060983572 34.23955497565517 -3 2 -6
1165 333 3 -0.7 1.4851068557154108 1.0251829856958843 27.570618955068678 0 2 1
2326 676 3 -0.7 4.974925473774091 1.5469095165597708 30.714663873066314 4 1 0
1616 460 2 0.265 1.3691730972166676 6.264974268323817 30.006210700833858 1 2 -3
1816 517 2 0.265 6.066414758801055 5.0899167316658875 31.830247044062705 -1 -1 0
1069 306 3 -0.7 4.3328652140673025 7.80118871674994 29.26189776369373 0 -3 0
254 73 4 0.435 4.731815833637171 8.920122184428331 33.181411662666804 1 -3 -2
1617 460 3 -0.7 2.645369487015748 5.63685433832674 30.222296427647017 1 2 -3
1946 554 3 -0.7 2.7623301378952174 5.228574752560005 34.12546424818295 1 2 -3
2424 709 2 0.265 6.233855150073071 4.379329615809393 38.0386162195246 -1 0 -1
1111 318 2 0.265 8.682093198853904 6.002081379515661 28.893891104562925 1 3 1
1702 484 3 -0.7 9.056413234799637 9.088121184748152 30.27074046643393 -1 1 -1
255 73 6 0 6.2196770143899744 7.857814143674462 35.8463293879603 1 -3 -2
1370 391 4 0.435 5.5325842719944545 1.0258833061359578 28.75932614712136 2 -4 -2
1368 391 5 0.265 7.193753471644896 1.465397371160185 27.810829407144947 2 -4 -2
397 114 1 0.435 4.382398107054656 7.027631958788522 27.18258727901652 -3 2 -1
2325 676 2 0.265 3.919396775754591 2.420001163013722 31.132743461308863 4 1 0
396 114 3 -0.7 4.167866745611353 6.326854977779583 26.569496169663807 -3 2 -1
588 167 4 0.435 0.2367212514063164 2.2355906748172467 27.38400666557279 1 -5 1
2107 603 3 -0.7 0.021652937748512346 9.545207469551155 29.28473849326628 1 -1 1
2474 725 1 0.435 0.6287094894672537 2.169350157705131 32.980911276507456 -1 2 0
919 263 2 0.265 8.213052611031372 1.2399468632730228 31.416813935007465 1 0 -1
2425 709 3 -0.7 6.09245128595468 3.003338732515992 37.69464935807262 -1 0 -1
2327 676 1 0.435 4.945236074954688 0.7529876718426892 31.26018941901096 4 1 0
1645 468 2 0.265 9.272827842993694 3.7178489719596377 35.89121274040959 0 3 -1
1410 402 4 0.435 5.458332983228466 0.23412275118888187 34.96700094778301 1 2 1
1621 461 1 0.435 2.96676937706184 5.89381977171168 25.623025530537827 4 2 0
2473 725 3 -0.7 -0.2601721657442785 2.2083087866998596 32.66257670317888 -1 2 0
1630 464 5 0.265 2.806288035345084 11.299758069082998 5.188736073586383 0 0 0
2463 722 2 0.265 5.249921416437501 17.839031139891535 7.81655738255193 2 -3 0
2345 682 1 0.435 3.0122043087223065 12.51228036769435 10.717032905515525 -1 1 -3
2213 638 1 0.435 8.39468295011418 12.560230667607975 3.7707136482745893 2 -1 1
1169 334 1 0.435 3.6679211630291686 14.199145181183702 0.27647338516350733 -1 -3 1
1633 464 6 0 1.2931605788876144 11.100157960325772 5.257202344300998 0 0 0
879 250 3 -0.7 7.288296788707533 13.193917654402576 6.992389702295409 3 1 0
2347 683 3 -0.7 9.105148623057662 11.275388190635017 8.869084980701896 -2 1 -2
2464 722 3 -0.7 6.210359120357974 18.67760029474919 7.234947604463217 2 -3 0
2075 592 1 0.435 7.444028398520282 15.15873540323848 9.85892181584956 2 0 4
1190 340 1 0.435 1.346100871298621 15.276056929855253 5.209412523910308 -1 -2 -1
82 23 3 -0.7 9.382635658414188 15.432992033057072 5.457270378366648 0 0 -1
1167 334 2 0.265 2.210653743621447 12.995996130434653 0.6398009373825607 -1 -3 1
2074 592 3 -0.7 7.713200403660162 15.45345584230985 8.984785427393074 2 0 4
2348 683 1 0.435 8.635546159216107 12.05941603901282 8.718221076461429 -2 1 -2
1302 373 2 0.265 2.0578259398219854 16.453641102923104 7.91161809538207 -3 -5 -2
176 50 1 0.435 6.4413416731875275 14.618037681668696 12.115805189052761 -2 0 -1
1303 373 3 -0.7 2.107999421988736 17.47669088548338 8.906039410817035 -3 -5 -2
880 250 1 0.435 7.22105040497417 14.027365874006247 6.542693310535741 3 1 0
174 50 2 0.265 7.8597951227267995 13.359113511613613 11.951902962679736 -2 0 -1
1055 302 2 0.265 4.309360498021611 17.64659074629539 12.286495974097793 3 3 3
1304 373 1 0.435 1.4627988888090955 17.16741596411439 9.555223928924496 -3 -5 -2
1632 464 4 0.435 2.542215289754421 13.122467208211514 5.755149577319109 0 0 0
2343 682 2 0.265 2.468238371657637 14.075011227765795 11.830835518760843 -1 1 -3
878 250 2 0.265 6.014019193308521 12.945917791522179 7.577275757137185 3 1 0
733 208 3 -0.7 6.097899061235479 17.03255548259499 2.0728667305548187 -1 -3 -3
860 244 1 0.435 8.129322127972728 14.704228279815597 2.815476356107398 -1 -2 1
2156 619 1 0.435 5.1196391381624275 16.092556035016173 0.9049067104128402 -1 1 4
1631 464 7 -0.7 3.0204811728204257 12.381755142725098 6.102932174227613 0 0 0
1802 513 3 -0.7 3.380970593412455 11.74218935449228 9.195750962322158 -5 -1 -2
2211 638 2 0.265 6.61597970794039 12.129333655971996 3.4689555476232066 2 -1 1
1189 340 3 -0.7 2.1989835837566387 14.880559646661817 5.034200062700045 -1 -2 -1
323 93 3 -0.7 0.3168868054016808 17.364087859023975 11.143375159078131 1 -3 -1
2346 683 2 0.265 8.339849464836707 10.23865079551364 8.323993443965827 -2 1 -2
2212 638 3 -0.7 7.761089032460234 12.94986649405245 3.1475457833204654 2 -1 1
110 31 5 0.265 5.24481114098135 10.346887241052627 12.156330722902483 0 0 4
859 244 3 -0.7 8.338314683820638 15.408219413705018 2.192511754172834 -1 -2 1
1188 340 2 0.265 2.8545616058679655 15.533908226945973 3.920495835204913 -1 -2 -1
732 208 2 0.265 6.220345357801246 18.089445082962335 2.9823252151256856 -1 -3 -3
734 208 1 0.435 6.801473250842477 16.442662496519073 2.31407317048584 -1 -3 -3
2073 592 2 0.265 9.106007773568267 15.573140556146646 8.906940765061348 2 0 4
324 93 1 0.435 0.10523354821844844 17.444258417365987 12.086844826752845 1 -3 -1
1803 513 1 0.435 3.391207672432496 11.823736250482378 8.257867365045747 -5 -1 -2
2465 722 1 0.435 5.70218783848422 19.24802233619404 6.646042315169676 2 -3 0
81 23 2 0.265 8.551163108974734 16.59422000124314 5.409483887766997 0 0 -1
450 129 6 0 9.14567612621302 10.141290957677635 0.4018726647534084 -1 2 -4
2239 647 3 -0.7 -0.047098018396300734 16.364135368912734 5.737652941535131 2 3 3
2344 682 3 -0.7 2.679579389485603 12.636677134405149 11.602745419259483 -1 1 -3
447 129 5 0.265 9.573959676740326 11.227977584561978 1.3817065539613047 -1 2 -4
1038 297 2 0.265 8.822095157389159 19.0975289094362 9.59482673765224 2 -2 -1
2155 619 3 -0.7 4.330682812178784 15.80462192497649 0.4560007469400556 -1 1 4
175 50 3 -0.7 6.990442426474594 14.333683594168804 11.362119859307702 -2 0 -1
466 134 5 0.265 0.6924629806304621 10.12770068825895 12.543234601352907 0 0 2
1801 513 2 0.265 2.897004938829117 10.41672437381519 9.26794321174614 -5 -1 -2
2177 626 1 0.435 1.754137939087077 12.430823627032712 18.407717742918887 -1 2 -8
1057 302 1 0.435 4.626626432376051 18.271160892660518 14.052705042552846 3 3 3
2175 626 2 0.265 2.627620767807964 14.079290874700956 18.683201825070928 -1 2 -8
113 31 6 0 5.346029172766134 11.304559387304034 13.345585252997637 0 0 4
1459 416 1 0.435 1.115891336875308 16.476253762888234 16.382203662559288 -1 3 2
1158 331 4 0.435 6.920877410191549 12.180276673500387 19.33327012751745 1 0 0
1056 302 3 -0.7 5.148030080574464 17.767600916613983 13.434295280563145 3 3 3
1433 409 5 0.265 0.9469586720802443 17.4646836209606 19.46111488288042 -1 -2 0
1855 529 2 0.265 8.533156822956846 17.1646431840797 16.848301357230692 0 0 2
2218 640 3 -0.7 5.284382984665692 11.577693061622202 18.21305937502762 1 -1 -4
2417 706 1 0.435 0.9103165245303797 15.296333086635688 21.5211517503506 -1 1 3
960 275 3 -0.7 5.060854879798189 17.462131843851108 20.973020146902286 6 -2 -3
1243 356 6 0 8.86359919803306 9.976192761996884 14.972636483736226 0 0 3
750 213 7 -0.7 0.2728277743688682 11.692891703461123 17.335675520336807 1 0 1
1881 536 3 -0.7 8.978514475861617 10.1777896482978 20.595494184926554 1 5 -3
65 18 6 0 6.469785544286839 15.519609965819962 23.874127848651234 -1 0 1
959 275 2 0.265 5.431755995131064 16.963697707579666 19.68848781593785 6 -2 -3
385 111 5 0.265 1.4180931677001196 10.522329655027415 21.0939545512228 2 5 -1
561 160 7 -0.7 5.842422934226422 10.131495999624846 24.83131544535561 -4 5 0
1128 323 2 0.265 3.370328099446442 19.00358524084373 16.433493571431722 5 -2 4
1856 529 3 -0.7 9.178416724358662 16.39175337667593 17.790452173647257 0 0 2
1434 409 7 -0.7 0.5453634872849764 16.803225025107146 18.241072377152836 -1 -2 0
1412 403 2 0.265 4.505898135699458 12.067337533331239 22.14730038562084 -2 6 -1
961 275 1 0.435 5.788432335849213 18.00063052197863 21.292844332286492 6 -2 -3
2416 706 3 -0.7 0.9212816649268745 15.640926752382498 22.39152094094939 -1 1 3
1156 331 5 0.265 8.266223726009693 13.457923473115578 19.26061683123083 1 0 0
2217 640 2 0.265 5.077291327960993 10.18760218608739 17.930733352404367 1 -1 -4
1157 331 7 -0.7 7.62036197312205 12.394460774295773 19.950747561594586 1 0 0
386 111 7 -0.7 1.9252053614714422 10.331650515516845 22.44143934096516 2 5 -1
2418 707 2 0.265 6.0521601209386855 14.832333563346006 14.956437176850962 -2 3 -4
2419 707 3 -0.7 5.829537624701144 15.158767326768817 13.562954249611932 -2 3 -4
1159 331 6 0 9.081084008558944 14.162293616530272 20.337971824072067 1 0 0
1880 536 2 0.265 9.48250639164005 10.204418608021204 21.960277909946498 1 5 -3
277 80 2 0.265 8.310165336757933 18.709970606000585 21.39128367485732 0 0 2
2176 626 3 -0.7 2.5683812203733405 12.663969531790588 18.81790324241847 -1 2 -8
305 88 2 0.265 9.139567673056836 10.438211425737379 25.517918486770263 7 -3 2
2219 640 1 0.435 4.450279095527825 11.991263963746976 18.24434449517082 1 -1 -4
1414 403 1 0.435 3.357754541636805 11.062933729097894 23.291528613407113 -2 6 -1
307 88 1 0.435 7.316927516353964 10.879676640661948 25.39294681487389 7 -3 2
467 134 7 -0.7 1.9561299399728367 10.218239987441283 13.160600041782956 0 0 2
562 160 4 0.435 5.260163922911055 10.73397089411519 24.363086491964125 -4 5 0
1472 420 1 0.435 4.114186717636417 18.83675666279022 20.99807552184375 2 -1 0
2415 706 2 0.265 2.2766872103269566 16.1537615123065 22.521127517822443 -1 1 3
1457 416 2 0.265 2.211875841572009 15.399471311603289 15.137807143971337 -1 3 2
1882 536 1 0.435 8.679606817648125 11.050839786480415 20.469205889687085 1 5 -3
2420 707 1 0.435 5.473687838431216 16.04255486223205 13.49424825070167 -2 3 -4
62 18 5 0.265 6.793007135480745 14.025181588294235 24.10181084729129 -1 0 1
1458 416 3 -0.7 0.9988809906651639 16.075423334039055 15.50629614655828 -1 3 2
1413 403 3 -0.7 4.100520538357617 11.670990549548128 23.461409797614824 -2 6 -1
1436 409 6 0 0.3677509316092553 18.8917369089592 19.56890454948779 -1 -2 0
1435 409 4 0.435 -0.2032572758751402 16.245728269007753 18.487840447149303 -1 -2 0
64 18 4 0.435 8.086055922850733 13.163721632237074 25.38257742861005 -1 0 1
751 213 4 0.435 -0.03845447016128689 10.81656882212058 17.144742119691244 1 0 1
63 18 7 -0.7 7.75280007269226 14.039656577621217 25.19612631864269 -1 0 1
937 268 4 0.435 6.703239877700971 18.784249929140223 13.905588331996684 -2 1 -1
468 134 4 0.435 2.175403779484942 11.126425545078053 12.999615367727381 0 0 2
936 268 7 -0.7 7.5157280040183165 19.253717139172952 14.22173389859286 -2 1 -1
964 276 4 0.435 3.8890934929099137 12.582030943310627 36.58352192966394 -3 2 2
1701 484 2 0.265 9.242716343812742 10.354555375600139 29.59388526245781 -1 1 -1
430 124 2 0.265 5.2915297879638885 17.079947553207354 29.952256269543895 2 1 0
534 153 7 -0.7 4.514924037032195 13.865282853982613 28.551326344233996 2 0 -4
1538 438 6 0 8.71806350103077 17.20763837782141 35.82949033068106 4 -2 3
306 88 3 -0.7 8.059064074819007 11.348520731718304 25.71656939036051 7 -3 2
2196 633 2 0.265 2.4067838870468634 16.392423589176513 26.308508780769593 2 1 1
533 153 5 0.265 5.23567818537403 13.110076591773094 27.582936699265062 2 0 -4
2321 674 1 0.435 1.0837500430243165 16.28789633778837 28.762741833837573 1 0 4
1315 376 6 0 2.4010430676938013 13.699955222966917 31.72168901979674 -1 4 -2
2154 619 2 0.265 4.0846431147300235 16.84641546201615 37.715592692321195 -1 1 3
1313 376 7 -0.7 4.3840467760629895 12.98414917148606 33.004526781201974 -1 4 -2
904 258 3 -0.7 9.197286408643171 10.28902753344018 32.63861769506026 3 2 -3
2106 603 2 0.265 -0.22705521587964936 10.840603403410741 29.784043165234078 1 -1 1
2320 674 3 -0.7 0.3490174548079049 16.21090657841478 29.33068319759624 1 0 4
289 83 6 0 1.4301345864644728 17.371475790264984 32.31693508306867 -1 3 -3
1141 327 5 0.265 8.30274125060736 17.57206018655744 27.146156971182304 -2 0 -1
432 124 1 0.435 5.680219805422447 16.653075953189557 28.059475876208317 2 1 0
965 276 6 0 6.2388166365120945 13.648746162467178 36.56817495378356 -3 2 2
2197 633 3 -0.7 2.5147044361192017 16.44197164480074 27.728592752593062 2 1 1
903 258 2 0.265 9.266857547626959 10.50821662469221 34.035494580042844 3 2 -3
1142 327 7 -0.7 7.460887812140718 16.400608757894698 27.18987091099135 -2 0 -1
2198 633 1 0.435 3.453547678114496 16.55299405713925 27.947844857076934 2 1 1
199 58 2 0.265 2.8184405760247855 10.0454487762714 27.004282288336768 1 -1 -3
962 276 5 0.265 5.677934207121365 12.299161867745404 36.09120231602985 -3 2 2
1143 327 4 0.435 7.724510734292968 15.770672487101105 26.5111506225086 -2 0 -1
431 124 3 -0.7 4.929371044141488 16.93349507132254 28.580965651417724 2 1 0
2319 674 2 0.265 -0.09095821891670305 14.871771768675519 29.346978031082166 1 0 4
1314 376 4 0.435 4.651712412272387 13.039163036840483 33.91492918592803 -1 4 -2
2142 615 2 0.265 3.05746081004848 9.844578449059142 31.4545487079838 3 0 -2
536 153 6 0 6.157011697591141 12.437686348046821 28.611325954161934 2 0 -4
2144 615 1 0.435 4.291628699409709 11.123968876265218 32.32376804715356 3 0 -2
1312 376 5 0.265 3.4428776683526072 14.040062957218142 32.79556017091736 -1 4 -2
392 113 2 0.265 0.4364038704557094 15.241700034617242 35.631837371211546 -2 0 -2
963 276 7 -0.7 4.310940951089217 12.51839572427672 35.737748202003665 -3 2 2
535 153 4 0.435 3.9158844636675214 14.517822605080951 28.250738442325726 2 0 -4
1280 366 6 0 7.898078501497503 13.853939197757894 32.351002674351754 -1 1 -2
890 254 2 0.265 5.2523762669005745 18.45690874107453 33.80070207517963 0 -1 1
1277 366 5 0.265 8.879847652549598 13.655303006328497 31.194681573210858 -1 1 -2
1535 438 5 0.265 8.826666801063295 17.593734257940184 37.32778258367078 4 -2 3
2143 615 3 -0.7 4.273774077893078 10.180625865121515 32.17390340417456 3 0 -2
286 83 5 0.265 -0.08932589026813864 17.6510881852614 32.35038285346144 -1 3 -3
905 258 1 0.435 9.47752363814441 11.081282129196433 32.20909385186582 3 2 -3
1168 334 3 -0.7 3.411700762408221 13.335649728617486 38.112927369570954 -1 -3 0
1144 327 6 0 9.542383910222615 17.446662786409554 28.041574452383582 -2 0 -1
1339 383 1 0.435 7.060543580182234 21.057289624857457 0.857095355400534 3 0 -3
609 173 5 0.265 1.2912068212547971 28.625687326308427 9.801705742735376 -3 3 -1
1254 359 6 0 8.330099479456221 26.949009511145626 7.853915101793719 2 -2 4
1374 392 4 0.435 8.788591898837094 21.310302434544177 8.036823732040482 1 2 1
1197 343 2 0.265 1.2352618507635633 23.583981793015475 0.5028831480361642 3 2 -2
12 4 5 0.265 7.443645816996905 23.487093768624653 10.074279614811399 5 0 -1
748 212 1 0.435 4.909730860656338 21.657152669776146 2.414987817949678 0 6 -3
1669 475 5 0.265 5.067450592680159 24.336321769009995 0.48273800646775816 -1 -1 5
678 193 2 0.265 2.6958779424509807 20.73626650163971 9.938166886369538 -4 3 4
610 173 7 -0.7 2.007400362237479 28.69887049694961 8.57696471071079 -3 3 -1
1656 471 2 0.265 8.726374718952659 24.090872415929717 5.1553604603746805 -4 2 -1
1657 471 3 -0.7 8.593330436806717 22.672867416273483 5.336311907904458 -4 2 -1
1925 548 4 0.435 4.531141216654058 20.58980603643986 4.745349042683997 1 -3 -1
13 4 7 -0.7 7.690575706771755 24.774582811989752 10.689973400552214 5 0 -1
446 128 6 0 7.075512186396983 27.23167394581127 2.447246528866755 -1 7 2
743 211 7 -0.7 1.601111368091584 27.501611327846533 3.1329280240114126 -1 0 1
256 74 2 0.265 1.213930495589048 26.094316356824766 12.669770476245048 2 2 -1
746 212 2 0.265 3.4351850165319284 20.55240532498421 2.0574353959219884 0 6 -3
1658 471 1 0.435 9.01520008531089 22.402124715990542 6.145630300797718 -4 2 -1
679 193 3 -0.7 1.6001911736743784 20.342966070418797 9.099140086079387 -4 3 4
15 4 6 0 6.421153197651025 23.748843799997857 8.967897444354625 5 0 -1
744 211 4 0.435 2.33055882760502 27.34460323428852 3.7261653901585774 -1 0 1
443 128 5 0.265 5.688355483308098 27.822863664773216 2.1583612409665967 -1 7 2
747 212 3 -0.7 4.359157552590592 21.107976247765823 2.9595731909313647 0 6 -3
1007 288 7 -0.7 3.2949332403927576 27.085076832214238 5.078014001148454 -4 -1 -2
1924 548 7 -0.7 4.703725435423109 20.56823004672393 5.685738070709417 1 -3 -1
1006 288 5 0.265 3.921614766157699 26.05274038832338 5.786920974219674 -4 -1 -2
1008 288 4 0.435 2.919915684259585 27.70106823471135 5.72189520515237 -4 -1 -2
14 4 4 0.435 8.54781545890464 25.13081127384677 10.459609387046363 5 0 -1
1926 548 6 0 2.5495977946966573 21.58006378993712 6.177034946880108 1 -3 -1
2008 572 7 -0.7 8.483268667794892 22.19694153905452 2.521919758744644 1 -3 0
1373 392 7 -0.7 9.446958003735164 21.801973050171615 7.480274954065207 1 2 1
1923 548 5 0.265 4.0592797642588 21.74420391637435 6.234979703169522 1 -3 -1
2009 572 4 0.435 8.430749589075598 22.343343694325352 3.465658978117843 1 -3 0
445 128 4 0.435 6.193182255963621 28.9177556730792 0.6998757907756779 -1 7 2
2475 726 2 0.265 0.048537362927052685 24.323459062601966 8.560127868699915 -2 -4 2
742 211 5 0.265 1.3139090650521874 28.909066853785887 3.309375182747692 -1 0 1
1009 288 6 0 2.9156315177578183 25.337232070597757 6.699508734712151 -4 -1 -2
95 27 2 0.265 0.046880524133805224 24.04015655135513 3.789085040746457 -3 0 5
1251 359 5 0.265 9.053771534281864 27.523898207600556 9.078331861836723 2 -2 4
1338 383 3 -0.7 6.2454589890572105 21.28811401515661 0.354297291562878 3 0 -3
1039 297 3 -0.7 8.042987886532911 20.009247477581088 8.850547680597563 2 -2 -1
2007 572 5 0.265 8.922441888452008 20.88288429597888 2.2672062875902537 1 -3 0
680 193 1 0.435 1.753050064537696 19.456634272438723 8.92220362376865 -4 3 4
1040 297 1 0.435 7.489864711152268 19.49721534664547 8.266069664159561 2 -2 -1
257 74 3 -0.7 -0.1494705601905788 26.54329814395396 12.762107282980532 2 2 -1
944 270 1 0.435 8.626422284993913 27.676915084862735 14.35745570672882 5 -2 0
1130 323 1 0.435 3.841687398064967 20.322604787364753 15.1104844987162 5 -2 4
1003 287 7 -0.7 -0.22547243982699605 28.058578898954018 23.382575733876827 -3 -3 -3
941 269 1 0.435 9.450033181869193 20.95894369287424 24.64544788518572 1 -2 1
2389 697 3 -0.7 4.724393315435665 23.451357840030465 14.546965526576772 3 1 3
2206 636 3 -0.7 2.8043055802770014 25.010937671020372 25.373675879746443 0 -1 -1
1847 526 3 -0.7 3.1974963695545933 19.894358416314947 23.939423837821806 -2 1 2
162 46 1 0.435 8.091953036143424 19.949174640545465 15.714690011362068 2 2 4
240 69 3 -0.7 0.025965926463550115 28.424432087905057 14.841815094848938 0 0 3