LAMMPS data file via write_data, version 29 Aug 2024, timestep = 11000000, units = real

2723 atoms
7 atom types
1994 bonds
5 bond types
1265 angles
3 angle types
1608 dihedrals
3 dihedral types

-1.0621813688400437 40.003301368817446 xlo xhi
-0.7070755477541937 39.44418554774166 ylo yhi
-0.5973680405576012 39.035588040542194 zlo zhi

Masses

1 1.008
2 15.011
3 15.999
4 1.008
5 14.011
6 15.011
7 15.999

Pair Coeffs # lj/cut/coul/long

1 0 0.4
2 0.195 3.75
3 0.185 3.02
4 0 0.4
5 0.0914 3.95
6 0.195 3.75
7 0.185 3.02

Bond Coeffs # harmonic

1 1000 1.43
2 1000 0.945
3 1000 1.54
4 1000 1.43
5 1000 0.945

Angle Coeffs # harmonic

1 55.045 108.5
2 55.0452 108.5
3 50.0772 109.47

Dihedral Coeffs # fourier

1 3 0.416953 1 0 -0.0579664 2 180 0.373453 3 0
2 3 0 1 0 0 2 180 0 3 0
3 3 0 1 0 0 2 180 0 3 0

Atoms # full

1426 405 4 0.435 7.450109565098364 2.4208922352951254 12.349182684301482 -1 0 3
184 53 3 -0.7 5.825451412926137 1.414050272553545 10.178575656633933 0 3 2
1867 515 6 0 -0.5442215520968667 0.540578751585743 2.8283992707831036 -2 1 -1
343 99 2 0.265 6.443658491233753 4.7762826559994265 1.0143069062043515 4 2 0
1575 442 6 0 1.0943261474352877 5.682857473192884 11.358117480113371 -4 0 -3
2551 686 6 0 -0.8046061528474221 6.514008957896916 8.166855602648749 1 0 -5
1425 405 7 -0.7 7.741745134502594 2.8124584534850987 11.506301404847159 -1 0 3
1641 459 7 -0.7 4.745345991302713 4.582866126047506 6.103402210547878 1 1 2
2723 729 6 0 2.821459425968631 3.649031370587764 8.813753739875498 2 2 -1
1054 303 2 0.265 -0.05601029454259976 5.438667674601137 0.2555185381126548 2 5 3
2722 729 4 0.435 -0.1537060929667059 3.0155733594164222 7.925482975320525 2 2 -1
127 37 4 0.435 0.002054222945796047 6.067369799755946 4.6932206788160755 1 1 -6
1424 405 5 0.265 7.187528837025885 4.114446383282521 11.39543022196756 -1 0 3
345 99 1 0.435 5.318578318348314 6.219559257233538 0.3361215446619338 4 2 0
183 53 2 0.265 6.054131432053872 1.5551558962303829 8.79575656428638 0 3 2
684 197 6 0 2.7826347677777923 4.134163978997726 3.296927333433243 0 -1 -3
126 37 7 -0.7 -0.09903785578183855 7.027018118341221 4.567814036624758 1 1 -6
344 99 3 -0.7 6.094408310029042 6.1584797090102255 0.8892927079073458 4 2 0
553 159 3 -0.7 7.032577855399312 8.396772458971205 2.206927648797757 1 0 3
552 159 2 0.265 8.398303181902394 8.587889286159093 1.8738207164065548 1 0 3
1642 459 4 0.435 4.494435883376488 5.131619498324442 5.350820783738665 1 1 2
1640 459 5 0.265 6.113845489957188 4.97817489470423 6.279448623831382 1 1 2
589 170 2 0.265 6.872198067951221 8.575469357656129 11.530408967364028 -2 -1 -2
2721 729 7 -0.7 0.7282317273909731 3.384034003583353 7.807359831883867 2 2 -1
1643 459 6 0 6.139494885747499 6.15018438951453 7.2872749625947355 1 1 2
185 53 1 0.435 6.235368156154948 2.1828178213445995 10.573327531916895 0 3 2
554 159 1 0.435 6.6811354503072575 7.670943162767864 1.7001729918664696 1 0 3
1427 405 6 0 8.228999429966882 5.150579335429599 10.917904039547551 -1 0 3
683 197 4 0.435 0.9211036722101114 3.9097116092851465 5.745691318742198 0 -1 -3
128 37 6 0 0.8966339195225239 9.167432668892296 5.0987809646341375 1 1 -6
1321 378 2 0.265 9.137851735131187 3.71360129973963 4.861917032831948 2 1 -2
474 135 6 0 0.8484055417989134 -0.5653690021017708 9.508747137701649 -1 -2 6
2548 686 5 0.265 -0.811980176163913 8.062140902748794 8.060285987614172 1 0 -5
682 197 7 -0.7 0.9714880520922504 4.2064553938197715 4.846816677826402 0 -1 -3
681 197 5 0.265 1.9066111746239152 3.3272152046236254 4.252703998861382 0 -1 -3
2720 729 5 0.265 1.460771443410231 2.956212485294896 8.972093045272478 2 2 -1
125 37 5 0.265 1.1445189022748026 7.684189434157354 4.7672196134415445 1 1 -6
1055 303 3 -0.7 1.0533013460708052 6.1597708370198 -0.2764284351578934 2 5 3
1242 356 1 0.435 4.91916730569226 0.008226301398916003 11.011413242051843 -1 -4 2
1562 439 4 0.435 3.1472096879795117 6.56531674499751 -0.4903748744422047 1 -2 4
1056 303 1 0.435 0.8201084704797559 7.013742473306182 -0.5926947586768421 2 5 3
980 281 4 0.435 -0.5977070687261439 8.86374167114906 23.44975137448066 0 2 0
500 143 4 0.435 5.554175766524928 9.26476821476073 17.020084626717257 -4 -3 1
328 94 4 0.435 0.4649925366146004 6.630625061640578 22.176080481609453 2 1 4
24 7 7 -0.7 0.5941301735162325 1.9562394879014469 16.60118334657726 1 0 3
979 281 7 -0.7 0.08071521957572392 8.4593483743024 22.936760765069984 0 2 0
1506 425 4 0.435 4.858077088699264 6.415894672410997 22.436483825470685 -1 1 1
51 15 3 -0.7 7.110927183857903 1.8925692452953675 14.166855348731827 2 3 2
1574 442 4 0.435 1.5291772161116572 5.554216361958053 14.52770933612063 -4 0 -3
1939 533 6 0 0.6041441422981233 6.0781089614804795 18.45416214988132 1 2 1
2468 666 5 0.265 2.7041210654550745 2.2480925932579288 12.8117086078181 -5 1 -2
1572 442 5 0.265 0.6915656027446517 6.074160406043937 12.805168903030205 -4 0 -3
1936 533 5 0.265 0.3910348600524276 6.539889987658659 16.9941178171396 1 2 1
1507 425 6 0 4.309944824612637 4.750097173566265 24.463419893003717 -1 1 1
2469 666 7 -0.7 1.8222403159164826 2.5648174171613745 13.899162169463906 -5 1 -2
2277 618 7 -0.7 -0.8785389739868081 8.975290043324417 20.2802189137627 3 4 -4
23 7 5 0.265 1.822687952085321 1.9577510717341915 17.39389437561491 1 0 3
1938 533 4 0.435 1.986588366470559 7.411411687860047 16.423718347391056 1 2 1
1937 533 7 -0.7 1.6192722024728279 6.554954436082573 16.246738658992648 1 2 1
1876 518 5 0.265 5.415105928434903 6.775931924569225 15.811319613576067 -2 -2 3
52 15 1 0.435 7.39069812446273 0.9874938073018766 14.245189609614435 2 3 2
981 281 6 0 1.6097098973496071 8.58247810427805 24.840872901556207 0 2 0
952 273 1 0.435 2.5690332732505485 6.682599543155969 21.897597566565903 5 4 4
2278 618 4 0.435 -0.46080941765657746 8.731582619496546 21.087011196533087 3 4 -4
1878 518 4 0.435 7.066067633444565 7.670571945402193 16.1231249122422 -2 -2 3
1681 469 7 -0.7 8.883994567219593 7.245068554695487 16.05753341746791 -6 2 2
712 205 3 -0.7 6.127788193076553 1.7682353266067508 21.3999290909242 -3 2 3
2381 644 7 -0.7 2.6402284691097155 9.000467593567535 16.860722577829726 -1 6 2
1573 442 7 -0.7 1.302189686355474 5.132849692207659 13.681287878328789 -4 0 -3
606 175 7 -0.7 4.086420384427938 -0.3865865519327287 21.233797086919754 2 2 1
846 243 1 0.435 7.414743440508625 1.5916806062164408 19.892765488102302 0 3 2
25 7 4 0.435 0.8459072799577312 2.0341887434822676 15.673252224407872 1 0 3
2076 568 5 0.265 8.015412821040638 7.876289346067217 21.232992526486015 -3 2 1
327 94 7 -0.7 1.0760851702294185 5.911884163149101 21.976163072635455 2 1 4
1877 518 7 -0.7 6.178768209133457 7.962789016445775 16.031598104722274 -2 -2 3
2681 719 7 -0.7 5.1919670586775215 -0.1193866924684871 17.597492325445963 2 2 -1
326 94 5 0.265 0.5713304730704363 4.68659377028702 22.50590456429406 2 1 4
2680 719 5 0.265 5.172105620681588 -0.1696767594730637 16.147844955066947 2 2 -1
2682 719 4 0.435 5.971367517436853 0.3509750084088181 17.856490534548463 2 2 -1
2471 666 6 0 4.167203705665393 2.7207654823762035 13.184763654130796 -5 1 -2
2077 568 7 -0.7 7.77572549344227 7.951570966041185 22.6132789768165 -3 2 1
978 281 5 0.265 1.262919154312149 9.118356490205048 23.450072354015205 0 2 0
711 205 2 0.265 5.51802326848982 3.0220588253559564 21.63690209712254 -3 2 3
951 273 3 -0.7 3.479828091216354 6.959823288916824 21.741989731174876 5 4 4
713 205 1 0.435 5.447775070057964 1.1584663616172362 21.351463997807123 -3 2 3
950 273 2 0.265 3.4909534039355643 7.290212033661404 20.32986547823646 5 4 4
1505 425 7 -0.7 5.602562297871884 6.368261450652569 23.034709863869242 -1 1 1
845 243 3 -0.7 7.671901316100612 1.7466640503997812 18.99703605597415 0 3 2
50 15 2 0.265 7.700829828522361 2.7443333807001618 15.136940244604379 2 3 2
26 7 6 0 1.8201730950495052 0.7348378291000282 18.320448226860858 1 0 3
2470 666 4 0.435 1.7587669404766921 3.494572295900478 14.022689352162848 -5 1 -2
329 94 6 0 1.4961278566565506 3.477417408843719 22.193628443122766 2 1 4
2079 568 6 0 8.950368230873941 8.989984455749685 20.75129592584284 -3 2 1
608 175 6 0 2.965354487099166 -0.3010538872885667 23.522434022133396 2 2 1
2078 568 4 0.435 7.163697094949923 7.293608004863012 22.831630065644745 -3 2 1
1879 518 6 0 4.866455123747762 6.945067197533715 14.38312966182758 -2 -2 3
476 136 3 -0.7 8.390784676400564 -0.16395749956422623 24.400265629291287 2 4 7
475 136 2 0.265 7.414460985797232 -0.5927345831431614 23.414952390101966 2 4 7
844 243 2 0.265 7.952374793856935 3.102609041684709 18.755903154789117 0 3 2
1504 425 5 0.265 5.029381689642027 6.103228642606389 24.328679467607095 -1 1 1
808 232 6 0 8.980453214212423 3.392440677016622 23.198813914063646 -3 2 -3
247 72 7 -0.7 8.48284075580271 -0.535940001203554 14.462887481322088 0 2 2
242 70 1 0.435 8.127820319801634 9.124480970608946 23.865859626350247 2 6 0
2226 605 4 0.435 -1.0276780595776702 1.8470327988303605 17.059802166415896 0 0 -6
636 184 4 0.435 3.6007140873961676 1.3605981469576083 29.46860271897195 0 -2 -2
867 249 3 -0.7 5.974513950267835 1.9140623323678017 34.01082691000539 1 -4 1
2554 687 4 0.435 1.6715670588565361 7.0460840850275925 29.405942323372155 0 2 -4
1733 482 7 -0.7 4.05242660249118 4.571734180962563 28.60930932703191 -3 1 -3
1245 357 1 0.435 0.3120523005696847 8.605552253224598 37.613379861879494 1 0 2
728 210 2 0.265 8.942863429511176 6.900517420494642 30.745732478922143 1 -1 3
200 58 5 0.265 5.449492055615941 1.3373325789792703 37.84332554612581 0 -5 -2
624 180 1 0.435 7.954561076513722 0.8078081989757466 34.88586000554649 0 3 -1
623 180 3 -0.7 8.301530862891086 0.378024231892927 35.65347347122426 0 3 -1
2214 602 4 0.435 -0.3813064425868271 0.13711957614227077 36.352419522271376 4 -6 0
794 229 5 0.265 2.314598575015313 1.1418641916540724 33.771101583956096 -2 3 2
1734 482 4 0.435 3.757611888687932 3.6611662576066735 28.50625787017959 -3 1 -3
1077 310 5 0.265 1.3640445304590338 4.884076451042364 31.52985895884883 2 0 -4
1079 310 4 0.435 2.652777624968767 4.944109971148237 29.889668743469194 2 0 -4
795 229 7 -0.7 3.528028525271518 0.4548443551469379 33.979304095587736 -2 3 2
1401 399 7 -0.7 -0.5803987454858583 8.778404842676531 30.45601086234059 5 -4 -2
216 62 3 -0.7 4.592450139606533 -0.2769926579831488 30.381162044314276 1 5 5
796 229 4 0.435 3.31338907267137 -0.434776353601602 33.79915811694622 -2 3 2
1560 439 5 0.265 4.2381054419588615 6.365552769726677 37.56492222348105 1 -2 3
1244 357 3 -0.7 0.9663841229215846 8.689604595734814 38.31114495172443 1 0 2
202 58 4 0.435 4.95966151017285 1.251401357287978 35.9284094998326 0 -5 -2
1132 325 3 -0.7 -1.048795928782729 8.277167990112327 36.89508853039311 1 -2 2
1078 310 7 -0.7 1.9877039727361585 5.484956682961625 30.343777352058314 2 0 -4
823 236 6 0 5.30873488301987 7.537774787254943 32.00444772956986 1 -1 -3
29 8 1 0.435 -0.3400479224960935 2.8554871589773265 35.95601829946318 -3 -3 -3
1131 325 2 0.265 -0.6853393508760648 7.976132767690199 35.56403493648787 1 -2 2
820 236 5 0.265 5.553344318264733 9.051041904963913 31.813739005106658 1 -1 -3
1735 482 6 0 6.08849613256544 5.8993805848363 28.084039100182835 -3 1 -3
797 229 6 0 1.69140350136577 0.8708580971679756 32.40606487672966 -2 3 2
1732 482 5 0.265 5.351358753373415 4.536061440708955 28.102967882800144 -3 1 -3
1787 495 6 0 6.421625932874804 -0.2216993913161186 27.114938289931604 2 0 4
868 249 1 0.435 5.245707892801798 1.3510276811815807 33.80388260042318 1 -4 1
1960 539 5 0.265 0.0018624616493931878 5.104509218322359 27.85662970850045 -2 5 -1
1080 310 6 0 2.045117656495632 5.481384838253276 32.81460958904003 2 0 -4
2552 687 5 0.265 3.1710759523609156 7.778400411600916 28.371289903702994 0 2 -4
637 184 6 0 2.9575282367981446 1.6852860719335263 26.506324822953825 0 -2 -2
635 184 7 -0.7 3.403016975594128 2.0467496554661144 28.905949569784003 0 -2 -2
2553 687 7 -0.7 1.8495530962785285 7.846305945971103 28.881345512235185 0 2 -4
1402 399 4 0.435 0.276080245334944 8.58969851480358 30.03964102414298 5 -4 -2
1963 539 6 0 0.8444944125447225 5.274269661770486 26.6025355669904 -2 5 -1
2555 687 6 0 3.7853051796488684 9.081117497653995 27.795098581717816 0 2 -4
866 249 2 0.265 6.584466608230779 2.2514114747822696 32.73868348833432 1 -4 1
2213 602 7 -0.7 -0.4951574891172127 1.1091925225206523 36.51675593850928 4 -6 0
2212 602 5 0.265 -0.4108597542608845 1.0970859704896205 37.94312420814539 4 -6 0
1563 439 6 0 3.42135771247706 7.187678562874081 36.547833367336 1 -2 3
1539 433 6 0 8.994311551195855 8.040470484680228 34.4526535373455 0 2 3
28 8 3 -0.7 -0.2651333953363242 3.782920555424657 35.713398961948485 -3 -3 -3
203 58 6 0 6.297495092885411 2.530389981411637 37.3891984486319 0 -5 -2
634 184 5 0.265 2.463862830951323 1.464308272943709 27.946816148563446 0 -2 -2
576 166 3 -0.7 9.202159555086666 4.163265868077588 32.519082722370726 0 -2 -3
1561 439 7 -0.7 4.038480754609521 6.694942841852095 38.95550557673488 1 -2 3
27 8 2 0.265 0.9588403376839438 4.341626248579645 36.263869918867925 -3 -3 -3
201 58 7 -0.7 4.517412493931061 1.058999022767487 36.746645497559456 0 -5 -2
1239 355 1 0.435 3.6584257967152043 -0.2794363916870365 36.46336815862155 -2 -4 -3
577 166 1 0.435 9.019283270228499 3.2276180405163086 32.60106294288438 0 -2 -3
1269 364 2 0.265 6.168974181892374 10.762641638557659 3.872391538706509 -6 -1 2
2596 698 5 0.265 5.20490826098598 17.054775402401145 7.801956430587003 -2 1 1
2297 623 7 -0.7 1.9477095641296942 14.497642700122352 11.878605204857386 1 1 -3
2088 571 5 0.265 3.598650490746949 9.910652057161858 9.702348275088294 1 6 3
1818 503 4 0.435 1.4079156411719693 17.837182248499147 1.143249784058528 2 -2 1
2599 698 6 0 6.657997607746469 17.318721666131516 7.490500464432708 -2 1 1
1496 423 5 0.265 3.2104024787873557 12.931200195382386 6.0710258774627155 1 0 1
1816 503 5 0.265 1.4162965475718088 16.871197149375323 2.821437387915271 2 -2 1
590 170 3 -0.7 7.036555968254472 9.585950524938156 10.503404048043999 -2 -1 -2
213 61 3 -0.7 1.891138242935022 17.9529649161097 8.260634580622998 -1 -2 1
1817 503 7 -0.7 2.0635027833520305 17.663068825031793 1.8302764937643996 2 -2 1
2299 623 6 0 3.3081092248052064 13.745506228672383 9.99219142137862 1 1 -3
169 49 7 -0.7 4.753654106902521 17.92653310122138 0.8969100475686045 0 -2 -5
310 89 7 -0.7 7.06090341493767 18.313972483577516 2.211489545172278 -1 3 3
1217 349 3 -0.7 6.951303273313357 12.172773954907141 10.159523476406457 4 3 4
309 89 5 0.265 6.877999460663868 19.246695451656322 3.290387642259141 -1 3 3
321 92 1 0.435 -0.22089719960486864 13.540209407611869 2.3058016339346823 -2 1 -3
1270 364 3 -0.7 5.7132673024046 11.357163447382613 5.0619402983531065 -6 -1 2
1689 471 7 -0.7 7.5575487096992795 13.743263066922982 4.781276157805866 3 4 0
311 89 4 0.435 6.226079727158801 18.10044247398122 1.7824390904541905 -1 3 3
1271 364 1 0.435 6.135930807363633 12.180547129371028 5.123028255435943 -6 -1 2
1819 503 6 0 2.1768723452711014 16.615118449863644 4.101688301448953 2 -2 1
168 49 5 0.265 4.5659618554104595 17.753575179742224 -0.5260460026609636 0 -2 -5
170 49 4 0.435 3.8800755421508013 18.01449138403102 1.2401754860358816 0 -2 -5
1659 463 6 0 4.165942018336462 18.854672027504268 11.570985886812553 0 0 3
319 92 2 0.265 0.9852224035189674 12.06174637649302 1.8919028852360809 -2 1 -3
2090 571 4 0.435 2.7194941415270986 11.19105830359985 8.397479083552412 1 6 3
1691 471 6 0 5.863221152130365 15.125333566418082 3.6445216455447316 3 4 0
2200 599 5 0.265 -0.5342284574933402 12.221909606641383 9.282521639832723 1 -2 -1
1957 538 7 -0.7 0.6339683318347971 16.54178301619907 10.209909551049403 1 0 0
2089 571 7 -0.7 2.510028782761657 10.63561484185458 9.13977133585913 1 6 3
2598 698 4 0.435 3.5564735041455533 18.16144796320506 8.169607077387333 -2 1 1
214 61 1 0.435 1.2430899630103145 17.47933135740837 8.81480130658179 -1 -2 1
1497 423 7 -0.7 3.682387197085321 11.892556399593216 6.947302564464726 1 0 1
1216 349 2 0.265 6.347778359215777 12.423832292073865 8.869815320346012 4 3 4
320 92 3 -0.7 0.5891491021014124 13.445930747097922 1.7599073484503873 -2 1 -3
2128 581 5 0.265 6.442189543784499 15.165380508776373 12.160224223900036 0 -2 -6
2091 571 6 0 3.231673145171051 9.47482167772176 11.13001361699899 1 6 3
2202 599 4 0.435 0.8691179612752786 10.865584469269336 9.64079894019638 1 -2 -1
1690 471 4 0.435 8.48284514929857 13.740490704338825 5.0487882534845845 3 4 0
1688 471 5 0.265 7.343246460225883 14.977223060747827 4.115577793740572 3 4 0
1218 349 1 0.435 6.942206817840333 11.239001439435127 10.364015043663727 4 3 4
1499 423 6 0 1.7934147251866297 13.3401268729776 6.503144173277551 1 0 1
212 61 2 0.265 1.3685975806939386 19.243786207543188 7.921599915368539 -1 -2 1
312 89 6 0 8.210009250609838 19.334161128973715 4.029547344587128 -1 3 3
2597 698 7 -0.7 4.472667832446873 18.262738108933974 7.8960584914256255 -2 1 1
1498 423 4 0.435 4.2576969650725545 11.342760257730676 6.426822290110044 1 0 1
2130 581 4 0.435 7.59802552953586 13.68091505220222 11.424759379374892 0 -2 -6
1958 538 4 0.435 0.8953674863492658 15.75378741108181 10.627146608281556 1 0 0
2296 623 5 0.265 2.7460294759658312 13.3737901687646 11.406342177925668 1 1 -3
2131 581 6 0 6.950762683979921 16.45582600117617 11.523283232653169 0 -2 -6
1012 290 6 0 4.920569713779764 11.80651677884009 -0.06235841033205858 -1 -2 6
1656 463 5 0.265 2.8719982365708985 18.06606321356478 11.815844741341172 0 0 3
2491 671 6 0 9.055738572017606 19.098130634480228 9.857672917914195 5 4 -2
1153 331 2 0.265 8.6898565600059 10.076053574303018 7.427552535279666 -1 -4 0
1154 331 3 -0.7 9.146071393801451 9.829331947137229 8.742413735490029 -1 -4 0
2201 599 7 -0.7 -0.03920670645324997 10.978255082165397 9.81333013881739 1 -2 -1
748 215 4 0.435 8.698774236840853 17.98824609547604 1.388045926359725 1 1 4
959 275 1 0.435 -0.2482113031887836 14.512055303940326 0.4186937254421874 4 1 1
958 275 3 -0.7 -0.8183748403085275 14.934269132948145 -0.19601275727516437 4 1 1
2129 581 7 -0.7 7.54199343193924 14.237988262255493 12.20526458037053 0 -2 -6
1956 538 5 0.265 -0.7773923542702306 16.404034320198605 10.128427912702396 1 0 0
591 170 1 0.435 7.92791525351163 9.530722228358119 10.154428035025159 -2 -1 -2
2550 686 4 0.435 -1.002560829630469 9.487123965476696 9.34280288181516 1 0 -5
640 185 1 0.435 9.028527922230804 12.570649716630315 8.931539496949172 0 -6 -2
265 77 3 -0.7 3.240573080392079 11.9248828794843 24.704415249047393 0 -2 -5
501 143 6 0 5.932423122134444 11.604263534039077 19.05936388403098 -4 -3 1
2279 618 6 0 0.6748413677927922 10.608731109414437 19.64455367907676 3 4 -4
537 154 6 0 4.283131289315686 17.92242197276721 15.83648787194512 4 2 0
31 9 3 -0.7 7.520699011979003 14.668134202716518 24.27861574051114 4 2 0
241 70 3 -0.7 8.222219840508048 9.589339893859073 24.642449807988406 2 6 0
1070 308 5 0.265 4.687396976354629 17.04896045064967 24.805771139608296 1 -3 -4
264 77 2 0.265 3.122152527924995 13.043361434204328 23.822118912099718 0 -2 -5
676 195 1 0.435 6.052855316814474 9.89629800169686 24.35457959571789 2 -2 4
365 105 3 -0.7 5.098891092686153 15.240356204293589 21.205667999551416 -1 6 4
263 76 1 0.435 1.5248678895540029 15.149745510509602 17.275127029414023 1 1 -2
1407 400 6 0 8.720764860113302 16.869420905193078 18.2896114809665 1 -6 -1
1072 308 4 0.435 5.431882653049964 17.18616605482401 23.04885419114099 1 -3 -4
1657 463 7 -0.7 2.4068332953905087 18.216865529892058 13.158971267177646 0 0 3
1340 383 4 0.435 1.1003772113033525 14.035941361383838 15.142203051600225 -2 4 2
498 143 5 0.265 6.054582999960272 10.160247570689705 18.58746089374686 -4 -3 1
262 76 3 -0.7 1.7989345835763397 14.324799018245816 16.79895444486777 1 1 -2
366 105 1 0.435 4.899252166352254 15.525842256795311 22.11082564453842 -1 6 4
1405 400 7 -0.7 7.43929749658985 16.475797834362325 20.22339656855726 1 -6 -1
564 162 6 0 5.190054104514487 11.710413004819957 14.294733522721277 3 4 3
261 76 2 0.265 2.585480536456293 13.588672259465254 17.713149078088072 1 1 -2
1404 400 5 0.265 8.266262569224123 15.78508325328509 19.31868556495852 1 -6 -1
563 162 4 0.435 7.362422213844905 13.176353868139383 13.51237129698556 3 4 3
32 9 1 0.435 7.325650123228144 15.154494501275998 25.055378295347914 4 2 0
2380 644 5 0.265 2.032477183369763 9.92186455221851 15.911538816405084 -1 6 2
535 154 7 -0.7 3.1416316869928282 16.133600858490166 14.572475453071865 4 2 0
364 105 2 0.265 3.84425337817373 15.285293690127144 20.52581697004703 -1 6 4
1542 434 4 0.435 7.069335064863067 17.47034374219119 21.691647073779247 4 -4 -2
1658 463 4 0.435 2.4808662751126507 17.364294074325773 13.610550519261123 0 0 3
1887 520 6 0 0.09738118269054707 14.955340292841406 21.920949909793435 4 -2 -1
499 143 7 -0.7 5.161733576940961 9.9446863957309 17.5176676188066 -4 -3 1
999 287 2 0.265 0.5393760608861229 17.899642748226864 17.08576310408726 2 1 3
1406 400 4 0.435 6.870592192986252 15.87048903171426 20.699838174757648 1 -6 -1
675 195 3 -0.7 5.1914207689828515 10.001907146693318 23.97593367765003 2 -2 4
1000 287 3 -0.7 1.4212816027487816 16.875119709513417 17.55371703636211 2 1 3
1339 383 7 -0.7 0.7815556407900865 13.63642326275172 14.34326894524163 -2 4 2
674 195 2 0.265 5.322610437796315 9.734510983550576 22.561908098652708 2 -2 4
1540 434 5 0.265 7.699071120015091 18.858863387904474 22.909117665956863 4 -4 -2
1541 434 7 -0.7 6.698705859555134 17.960640276458 22.4475972371906 4 -4 -2
30 9 2 0.265 6.488118987009636 13.706062096464665 24.057352105504407 4 2 0
534 154 5 0.265 4.366475017238417 16.55351718728136 15.177316197292344 4 2 0
562 162 7 -0.7 7.572662387046888 12.574785425939904 14.25983913523934 3 4 3
266 77 1 0.435 3.8001704707768154 11.246880384640157 24.3202134303249 0 -2 -5
1001 287 1 0.435 1.4473550569446174 16.87309849199684 18.51078044124213 2 1 3
2121 579 7 -0.7 2.1143168167714452 19.20427237262097 20.011776774552718 -2 -3 -1
1886 520 4 0.435 1.5162957431558826 17.475339142243282 20.75745707540836 4 -2 -1
1071 308 7 -0.7 4.826255814558268 16.595622412957546 23.461502954051994 1 -3 -4
561 162 5 0.265 6.70141633718703 11.406986348923573 14.266515484528963 3 4 3
536 154 4 0.435 2.6179660089141685 15.715481293362402 15.270293044890398 4 2 0
1885 520 7 -0.7 0.9303987737359685 16.790690525511 20.512651862067145 4 -2 -1
1073 308 6 0 3.569253846160077 16.197488567489668 25.466154013753286 1 -3 -4
1884 520 5 0.265 0.44902652417532574 16.44511569696748 21.824603731393704 4 -2 -1
2276 618 5 0.265 -0.700125148545707 10.41001390434354 20.21798458760717 3 4 -4
2383 644 6 0 0.6782748956157774 9.455039645098484 15.405640057678003 -1 6 2
1338 383 5 0.265 -0.5959736459201321 13.930580327912734 14.131976355444415 -2 4 2
2120 579 5 0.265 3.4752769694944767 19.01683189203733 20.397700170749133 -2 -3 -1
1329 380 4 0.435 8.822942422136803 13.000765025772912 15.894552695392065 1 0 -2
2298 623 4 0.435 1.710784370987795 14.264597147442965 12.774955655655893 1 1 -3
1982 544 4 0.435 9.137510009304592 14.902425289043572 23.47196621443666 -3 1 1
2382 644 4 0.435 3.381256288587169 9.443225062053793 17.336005791897033 -1 6 2
2623 704 6 0 0.6038506105123331 11.300399894583082 28.26023420413735 3 -3 -4
1930 531 4 0.435 3.1098972966285805 16.53853966306036 32.351906728648416 0 8 1
19 6 5 0.265 4.27097829498646 15.052319690417184 34.57261027972284 1 0 2
20 6 7 -0.7 3.4360095315256123 15.00960981360108 33.45969621032101 1 0 2
1344 384 4 0.435 0.9012111428905765 10.657164228172114 31.816333233937254 3 0 -1
1011 290 4 0.435 5.8129089994419765 10.901759952594437 36.8127979934589 -1 -2 5
1010 290 7 -0.7 6.179478251925953 11.396510381724678 37.52621625100552 -1 -2 5
1316 376 6 0 0.05554300986654015 15.721116104969717 34.847979848744515 1 -3 -4
2621 704 7 -0.7 2.4892450350035387 12.480271324201095 27.380593406609478 3 -3 -4
1243 357 2 0.265 1.153156534744208 10.06648106505761 38.67742254521221 1 0 2
2158 588 4 0.435 6.575154179234659 14.809800520696829 28.043685514315726 -1 1 -1
63 18 6 0 7.475728795967187 14.529530684588414 37.79487143904561 -1 1 -4
826 237 1 0.435 4.968300244521829 10.023042997645767 34.66240758644523 -6 0 6
957 275 2 0.265 -0.4147630264356914 14.40693832545993 38.18873368913397 4 1 0
824 237 2 0.265 3.465241008417528 11.041647483576773 34.96521846768688 -6 0 6
560 161 1 0.435 7.918673815741675 16.9704277553235 27.501585684022867 2 -2 -4
559 161 3 -0.7 7.892079201237696 17.79962171941005 27.04231242263408 2 -2 -4
1009 290 5 0.265 5.487535101238304 10.748415409696062 38.609761726388896 -1 -2 5
62 18 4 0.435 7.70882136456861 12.257438574013864 37.26844113768746 -1 1 -4
22 6 6 0 3.9534819397249557 16.3045620423118 35.43805673504522 1 0 2
60 18 5 0.265 8.733567277057098 13.968256290224746 37.13743432790372 -1 1 -4
2210 601 4 0.435 7.951921781866844 11.77256851190757 31.38831309541452 -1 -1 3
2622 704 4 0.435 2.5766689601557387 12.138327084751037 26.49666286588475 3 -3 -4
2472 667 5 0.265 8.430751795911586 10.046165461629922 29.523683892378926 5 0 -3
1342 384 5 0.265 -0.28586245779265773 11.561513636061346 33.09510555167623 3 0 -1
1931 531 6 0 3.822575299916175 17.01976541629607 30.144683644527966 0 8 1
2156 588 5 0.265 7.95248020611181 14.807635762376552 29.41370260199552 -1 1 -1
1928 531 5 0.265 3.3381563293310945 18.025930923585765 31.177509974854253 0 8 1
2620 704 5 0.265 1.0985258587315876 12.667808871020249 27.76890019394009 3 -3 -4
519 149 2 0.265 -0.10827189476427401 16.46549461904809 30.471225261298702 -1 2 -2
1299 372 3 -0.7 3.09307402169878 12.765455769682312 32.184492123677074 3 5 -2
1313 376 5 0.265 -0.18617119719914998 17.089902768131235 34.22987794745909 1 -3 -4
821 236 7 -0.7 5.716614609838663 9.804627456815123 33.02979003353866 1 -1 -3
61 18 7 -0.7 8.642942599271917 12.506900780143427 37.27440848482708 -1 1 -4
2157 588 7 -0.7 7.280516948553235 15.355604117869778 28.24343904302109 -1 1 -1
1929 531 7 -0.7 2.5653140564416455 17.271658910670926 32.175655288238914 0 8 1
1300 372 1 0.435 2.3339677949224327 12.258154883894282 32.404771239279015 3 5 -2
1343 384 7 -0.7 0.9947573859370387 11.075095139263682 32.64509183610393 3 0 -1
1314 376 7 -0.7 0.9425921014836915 17.966964208550113 34.31777620340934 1 -3 -4
21 6 4 0.435 3.509359126852977 14.096446766444405 33.14630721126319 1 0 2
825 237 3 -0.7 4.640746092160461 10.406517470964095 35.43130266356904 -6 0 6
1298 372 2 0.265 3.1891360992039894 12.668928794048814 30.737465612991677 3 5 -2
822 236 4 0.435 6.206773996057975 10.564771874470356 32.75133011382256 1 -1 -3
1108 318 6 0 8.033266033837558 17.932536684116076 34.31425217053089 0 -3 3
394 114 3 -0.7 5.062711150867979 13.359110449563932 27.55553700469872 -1 0 -3
2475 667 6 0 8.371956232950227 9.658045866736119 28.031004003052853 5 0 -3
395 114 1 0.435 4.208659014369895 13.036269748393282 27.346641652109174 -1 0 -3
2159 588 6 0 7.604678613606357 15.73545120588987 30.5964949454281 -1 1 -1
1315 376 4 0.435 1.5096513101836115 17.833134002461275 33.548035312101945 1 -3 -4
2208 601 5 0.265 8.309184480556283 12.654718792249263 33.023444621235384 -1 -1 3
1105 318 5 0.265 7.222423817115441 18.940961982139857 33.56272229582322 0 -3 3
393 114 2 0.265 5.960343349385912 12.283198781522499 27.340924729112114 -1 0 -3
2209 601 7 -0.7 7.629804826775656 11.643424510388417 32.2856876115288 -1 -1 3
2473 667 7 -0.7 8.725348336362007 11.403392458845596 29.860872318552612 5 0 -3
1345 384 6 0 -0.12922025837974427 11.917349567247912 34.59371387110188 3 0 -1
520 149 3 -0.7 -0.8194074213335586 15.908452629791565 29.34175844206776 -1 2 -2
1106 318 7 -0.7 7.528017625066431 18.81958150550086 32.15681314248218 0 -3 3
171 49 6 0 5.856041151790697 18.069825138710904 38.314339747361075 0 -2 -6
1107 318 4 0.435 6.765040436825388 19.13798544044699 31.75292603452296 0 -3 3
558 161 2 0.265 9.156711827459562 18.051401134079562 26.418906574586373 2 -2 -4
2506 675 4 0.435 9.039562645607875 18.725644764138334 31.70016386067501 1 -1 1
2569 691 7 -0.7 2.2836579376966974 22.276728477248763 2.372969230012037 2 4 0
1571 441 6 0 -0.4211637862824451 22.94595809616057 5.335833187030599 -2 1 -4
2560 689 5 0.265 6.215160784107873 23.62122337189063 1.976819880448632 2 0 0
1782 494 4 0.435 4.860243479556653 27.181463779762865 4.723184800543753 2 4 3
2634 707 4 0.435 0.5098075312608896 26.152466798547277 6.4749083020514595 -2 -2 3
285 82 6 0 1.7806134114951164 26.986420379860228 2.368805729648127 1 -5 9
2651 711 6 0 8.364464471093136 20.798602743699053 -0.0761213220284227 -1 1 3
2534 682 4 0.435 8.66718624650008 23.461116159074855 12.049318371413115 -1 1 5
2446 660 4 0.435 3.8018838327567748 25.001800469125357 4.698580576739581 0 3 0
1325 379 3 -0.7 7.167741997296087 24.877118035409012 11.878905555851262 -3 5 2
1528 431 5 0.265 3.3118969052618983 26.704390294599076 9.816295881669252 0 2 -2
579 167 3 -0.7 4.867427186389287 20.822623597471324 7.934112202225753 0 -4 -5
1324 379 2 0.265 6.1778694699154695 23.83833962641642 11.633331408338819 -3 5 2
1530 431 4 0.435 1.6524697604603866 26.278234606432907 8.650762393279614 0 2 -2
2633 707 7 -0.7 1.018686439440709 26.604594354197825 7.1318355662106265 -2 -2 3
1693 472 7 -0.7 7.21195978045078 27.751476561993336 -0.3290232471249625 3 2 2
2568 691 5 0.265 2.150971115697089 21.61797063875402 3.6073050887412155 2 4 0
284 82 4 0.435 2.979466799114693 23.92609927104339 2.5148496794419706 1 -5 9
2561 689 7 -0.7 6.537772153128934 23.40618031902781 0.5906459597438809 2 0 0
1529 431 7 -0.7 2.0832312294139173 25.993033879764347 9.496693796130137 0 2 -2
2521 679 7 -0.7 -0.18805180023103008 22.07189955098288 1.2027443619277907 2 3 -4
2445 660 7 -0.7 4.184440583712861 25.592215552755867 5.340317005072265 0 3 0
2520 679 5 0.265 -0.5782264752295443 21.844714395762907 -0.1423601748496892 2 3 -4
1965 540 7 -0.7 8.351599469447994 26.348481334387376 10.04587561386456 -1 -2 -2
2456 663 5 0.265 1.8406279206375005 22.988940254544907 10.598921425231294 0 -4 6
2571 691 6 0 3.4607435136523623 21.229353753312143 4.2926116206490725 2 4 0
68 20 5 0.265 -0.8224516717225115 27.065441849979653 10.545063229371198 -4 -1 0
2447 660 6 0 5.1959786972528565 24.273352169596603 7.270372390936436 0 3 0
282 82 5 0.265 2.552406287780099 25.729014804570912 1.8416550767775397 1 -5 9