LAMMPS data file via write_data, version 29 Aug 2024, timestep = 11000000, units = real

2815 atoms
7 atom types
2086 bonds
5 bond types
1357 angles
3 angle types
1884 dihedrals
3 dihedral types

-1.3030587706527221 40.24417877063232 xlo xhi
-0.9425904085935706 39.67970040856703 ylo yhi
-0.8298426847383773 39.268062684742695 zlo zhi

Masses

1 1.008
2 15.011
3 15.999
4 1.008
5 14.011
6 15.011
7 15.999

Pair Coeffs # lj/cut/coul/long

1 0 0.4
2 0.195 3.75
3 0.185 3.02
4 0 0.4
5 0.0914 3.95
6 0.195 3.75
7 0.185 3.02

Bond Coeffs # harmonic

1 1000 1.43
2 1000 0.945
3 1000 1.54
4 1000 1.43
5 1000 0.945

Angle Coeffs # harmonic

1 55.045 108.5
2 55.0452 108.5
3 50.0772 109.47

Dihedral Coeffs # fourier

1 3 0.416953 1 0 -0.0579664 2 180 0.373453 3 0
2 3 0 1 0 0 2 180 0 3 0
3 3 0 1 0 0 2 180 0 3 0

Atoms # full

956 265 5 0.265 3.399677998312124 5.297652118787028 5.48247738839848 0 -3 3
914 254 4 0.435 4.409056518574089 0.2746039134189724 2.746607180033843 0 2 1
263 76 4 0.435 6.474967288058037 6.131662918908312 7.541822557980437 -2 2 -1
488 140 2 0.265 6.95659158935481 -0.7100822858891562 4.594993559472751 0 0 2
1100 301 5 0.265 2.415931815126024 1.913389669499007 8.400498190200713 -1 3 0
277 80 7 -0.7 3.098156210192827 9.097653914134657 3.1653359512602446 1 -2 5
913 254 7 -0.7 3.9264492880572224 -0.5306481924226848 2.8269383622205293 0 2 1
2706 702 4 0.435 5.797472019894705 8.790757360782607 11.732909516119243 4 -4 0
309 89 2 0.265 6.460020902603493 2.5417016580862835 2.6211961324502164 0 2 1
262 76 7 -0.7 6.006403031683619 5.379881557367017 7.379179566192962 -2 2 -1
1600 426 5 0.265 -0.8780318421334121 2.7395145775733987 11.406981611274606 2 -1 2
1767 467 6 0 0.2828038019805037 1.7985020253598685 3.88319120579417 -3 2 1
2144 562 5 0.265 4.832905631853537 6.020815630876987 1.9553017712701335 -1 2 -5
2667 692 6 0 -0.12352029120608332 7.595267415001647 10.79488522849885 3 2 3
957 265 7 -0.7 4.47842900820295 6.233096007178592 5.434064370162868 0 -3 3
2705 702 7 -0.7 5.0863183001429855 8.499835332635934 11.220718865014861 4 -4 0
2147 562 6 0 5.536170085366686 6.508777339254149 0.672449175999567 -1 2 -5
310 89 3 -0.7 5.363792177158457 1.661242453451469 2.3664711533307763 0 2 1
2215 579 6 0 8.698290429593328 0.9770348838783236 9.36109305065937 3 2 -2
1765 467 7 -0.7 -0.46750327026124006 2.9887391769003924 5.9616887936599054 -3 2 1
1602 426 4 0.435 0.5753678328860492 3.9120235956776703 10.564649122938697 2 -1 2
862 241 4 0.435 2.3347694940617165 4.865238486608631 12.05732808628271 0 2 1
2758 715 4 0.435 5.504067123038794 -0.0749292150583809 10.071076094139332 -2 0 3
11 4 2 0.265 0.07292246477289988 8.178778151825405 7.15776183457382 -1 -1 2
819 230 6 0 -0.2773697398669772 6.000827591897039 2.27312755261228 2 -5 6
663 189 6 0 7.3565279727861 5.9345088480398624 11.366941268252294 1 -1 1
959 265 6 0 3.7040407821583736 3.991305037697118 4.723394045106671 0 -3 3
2146 562 4 0.435 4.9005880319910755 6.739911894507624 3.7089920472177065 -1 2 -5
863 241 6 0 2.6746710986090823 6.157196977781763 9.600522311743429 0 2 1
1764 467 5 0.265 -0.7509113732108122 1.9719946768617138 5.007360729640161 -3 2 1
817 230 7 -0.7 0.7334274724728438 8.125913834661517 2.7681498205721526 2 -5 6
1923 506 6 0 8.657301825793724 6.927073044759005 2.902154779293495 1 -2 -2
1103 301 6 0 3.0805137876623396 1.170940233815423 7.226738029179549 -1 3 0
816 230 5 0.265 0.7413379347921407 6.742901780764685 3.1552364325688766 2 -5 6
1949 513 7 -0.7 7.275666251699313 7.892197090948995 7.474818698402691 0 1 3
1950 513 4 0.435 7.973210765279328 8.417571224651304 7.868309241910643 0 1 3
1972 519 5 0.265 -0.5099512232370911 -0.2196431733647174 9.121942693703595 1 3 1
2145 562 7 -0.7 4.980326030909466 7.143646994712661 2.860950192487398 -1 2 -5
278 80 4 0.435 3.8386675817859883 8.519239543958866 3.1131103195935954 1 -2 5
958 265 4 0.435 5.05300252664329 5.875405023638183 6.100532834866234 0 -3 3
1101 301 7 -0.7 1.068697530109615 2.35795286204856 8.086517090092604 -1 3 0
860 241 5 0.265 3.0422188575767093 4.863545272248595 10.245394659189671 0 2 1
861 241 7 -0.7 2.0991352197215454 4.477937829842089 11.209964997475224 0 2 1
2756 715 5 0.265 5.597685263957844 1.0116861734596412 11.648334463729405 -2 0 3
261 76 5 0.265 6.887254385743445 4.267430403183767 7.3245933190394155 -2 2 -1
1102 301 4 0.435 0.6959757719225532 2.773043681686639 8.9034470497121 -1 3 0
818 230 4 0.435 1.4981409088258886 8.542378748314295 3.1204901335710002 2 -5 6
1601 426 7 -0.7 -0.09801872847454463 3.259052266400718 10.303545069675053 2 -1 2
2757 715 7 -0.7 4.863758754748549 0.30833541194443614 10.629774716111495 -2 0 3
264 76 6 0 7.573380738459129 4.175824225106963 5.9751118337649585 -2 2 -1
1766 467 4 0.435 0.00022272468890549568 2.6644598671994646 6.746664869948283 -3 2 1
311 89 1 0.435 5.305341183995722 1.570617570801398 1.396821389447258 0 2 1
12 4 3 -0.7 -1.200026056505906 8.056937774958596 6.562261807052674 -1 -1 2
2402 626 4 0.435 5.7907781350585195 0.7020005735814303 -0.7436833817879439 -2 3 -4
660 189 5 0.265 8.320799467259276 6.377418964352075 10.227903378277212 1 -1 1
2403 626 6 0 3.286864554297355 2.511225073790932 -0.19389698635926234 -2 3 -4
1218 330 4 0.435 -1.2420970116470433 4.4997479157395395 6.2111375266771 0 1 -3
2664 692 5 0.265 0.40047386134873264 8.903017281640656 11.399762584284078 3 2 3
1253 339 7 -0.7 2.296185985905493 -0.6907353895383644 11.035610202206056 -2 -1 2
2212 579 5 0.265 8.23227449760373 -0.346109292517202 8.688267990928543 3 2 -2
2759 715 6 0 4.649407809454992 1.9591616842744481 12.405049931977253 -2 0 3
34 10 4 0.435 8.865339987763676 8.9177335878388 9.823868348802469 0 1 -3
912 254 5 0.265 3.3752097456727634 -0.8620900648081942 1.5516919348585323 0 2 1
1254 339 4 0.435 3.2222528473005676 -0.48565750054917045 10.981576909420095 -2 -1 2
2401 626 7 -0.7 5.3394553264062505 1.448983328797934 -0.33586519292997036 -2 3 -4
661 189 7 -0.7 9.04082021543429 7.534830231706749 10.730953775637536 1 -1 1
1948 513 5 0.265 6.907095825400429 8.576411484876997 6.2871133429000325 0 1 3
2213 579 7 -0.7 6.956808795606467 -0.7700579625290721 9.17894554800497 3 2 -2
1878 495 4 0.435 3.6903022431988193 8.35669847654449 12.274976014046995 4 -1 2
40 12 3 -0.7 -0.35324951763613466 6.193066280776163 23.712388041995094 7 -5 -2
2555 664 6 0 0.6346159271873606 4.765945477145132 15.278958966348078 1 0 0
1512 404 5 0.265 7.864753894292402 4.096753906393836 24.616802966007413 1 -3 -1
552 158 2 0.265 3.3021237639362804 7.154622607298007 22.439110693343018 4 1 -1
65 20 2 0.265 7.068078563393595 3.6481176946789455 19.959295155305085 -4 -1 0
67 20 1 0.435 6.838746358090251 5.386433246475229 19.43675804925444 -4 -1 0
2355 614 6 0 8.203607264573613 8.763630890757087 22.754584879648306 -1 5 -2
1775 469 6 0 8.903334986053432 0.1309445095412427 13.745580981130194 1 -3 -3
553 158 3 -0.7 3.7777887316495713 7.824773694867352 21.246575091472575 4 1 -1
1879 495 6 0 3.2890957065272763 8.188792777636463 15.636386784192158 4 -1 2
2441 636 7 -0.7 5.811221169733051 0.9489346061414905 22.07076603510395 2 1 -1
1872 494 5 0.265 1.2359830408503027 5.396894549274955 19.014833694891845 0 0 0
1875 494 6 0 0.963502408481133 4.330260916078771 20.072402776221637 0 0 0
399 115 1 0.435 8.392967010853784 1.287649670645425 22.861371950129076 3 -1 2
2651 688 6 0 0.47427067186957994 1.3701454298346176 15.643639095421197 4 2 2
1873 494 7 -0.7 2.324635204440712 6.225362648429658 19.345057800939813 0 0 0
39 12 2 0.265 -0.6743093748219603 7.555903945560933 23.4354595958977 7 -5 -2
824 232 5 0.265 7.6072063037518625 8.936193022165009 14.136454568844504 4 -2 1
66 20 3 -0.7 6.387410436305211 4.583004126172583 19.149836122285464 -4 -1 0
1569 418 7 -0.7 4.304286062871 4.333021615006709 17.780503904535585 0 1 0
1568 418 5 0.265 5.045930652840936 4.244426104031992 16.54990489421517 0 1 0
2442 636 4 0.435 6.483010548904055 0.6734642071525172 21.48026285937097 2 1 -1
41 12 1 0.435 -0.8901877001657135 5.6195969091640015 23.1890683134442 7 -5 -2
1274 344 4 0.435 6.757781309870996 7.739978676447306 20.619277590761765 0 3 -4
1874 494 4 0.435 3.0672696891328304 5.9457666559454605 18.81037192099276 0 0 0
2354 614 4 0.435 5.271365940821874 8.637450755560678 21.54562062613843 -1 5 -2
1877 495 7 -0.7 3.1450368217724636 8.479077377096395 13.100043154765867 4 -1 2
1570 418 4 0.435 4.993667183619269 4.338630736300634 18.472151743818156 0 1 0
1542 411 4 0.435 0.9983165913107745 5.499003566043474 24.52084771951461 3 -2 1
2435 634 6 0 1.6708989150335567 0.1471086012057332 25.403956034146038 5 2 -4
2552 664 5 0.265 0.6731569039589222 5.794181980992965 14.143269291978536 1 0 0
2352 614 5 0.265 6.646871609213129 8.59723959376987 22.960647553295196 -1 5 -2
1273 344 7 -0.7 7.168264105235215 7.065977761785396 20.09102075964238 0 3 -4
1541 411 7 -0.7 1.8725994440198042 5.242899301152793 24.752355468427837 3 -2 1
1571 418 6 0 4.262585469769343 4.671826720817513 15.29363087674951 0 1 0
2440 636 5 0.265 4.642846038355043 0.3517556055123583 21.536182726510813 2 1 -1
1272 344 5 0.265 7.686378216665249 7.794453373018889 18.939979753897788 0 3 -4
1876 495 5 0.265 3.9829031245086846 8.334067219276784 14.262010390835046 4 -1 2
554 158 1 0.435 3.3258767772604347 7.28563802704228 20.59806802204421 4 1 -1
2443 636 6 0 4.3534058451373285 -0.9329997868131225 22.353034263673948 2 1 -1
1275 344 6 0 6.523027383686617 8.214650751161733 18.04931095753138 0 3 -4
1515 404 6 0 6.983865972920022 5.1571683493937375 23.901662749397257 1 -3 -1
2329 608 7 -0.7 7.848840771604857 -0.33019143719128663 20.081807938397272 2 2 -1
2330 608 4 0.435 8.289696552445946 0.17766063666431253 20.76014657256833 2 2 -1
2553 664 7 -0.7 1.9110405509698012 5.937867246260486 13.538403039518483 1 0 0
2648 688 5 0.265 0.42695092533053325 0.05305002360073141 16.41515802875132 4 2 2
979 270 6 0 -0.38399457860421604 0.8571899481597929 19.954319102492892 -5 -1 -3
1543 411 6 0 3.4570417553212742 3.250320327946219 24.926766005431585 3 -2 1
2554 664 4 0.435 2.066218179520938 6.9086470368684445 13.563128390017074 1 0 0
1540 411 5 0.265 2.028235975923614 3.8209105618445633 24.770582251339754 3 -2 1
907 252 6 0 8.37573995288159 4.794396345192321 15.30325809494786 -4 1 0
346 100 5 0.265 4.877409571895346 -0.5792328766723251 16.532054641983958 1 1 -4
349 100 6 0 5.815854208576895 0.39832726993193157 15.8990639457388 1 1 -4
2353 614 7 -0.7 6.089415748566267 9.045937560295245 21.734033036713175 -1 5 -2
398 115 3 -0.7 8.751242700149318 1.0675413640799891 22.017405373374523 3 -1 2
2649 688 7 -0.7 1.4242939830866579 -0.7794760138821779 15.83553633451099 4 2 2
2328 608 5 0.265 8.840164650045498 -0.8542308816137243 19.157171320470006 2 2 -1
348 100 4 0.435 3.2043840805485315 -0.8420161804721069 15.561356731289354 1 1 -4
2611 678 6 0 -0.6581619257430094 3.4950956617433144 29.507835796275163 2 0 -1
2094 549 4 0.435 -0.12520040996410242 3.653042388306477 37.85743351497088 -1 1 3
1164 317 5 0.265 8.732314325818898 6.932433106786688 37.52917089088413 -2 3 -4
1335 359 6 0 0.35458435162279356 7.369218027284262 30.76802102300681 0 0 2
2656 690 5 0.265 0.7921086690259616 -0.7607124163763408 29.986560868284073 1 3 -1
563 161 3 -0.7 3.1596198422584045 6.600669188178475 26.862904700211356 -5 0 3
564 161 1 0.435 2.9291016085764987 6.188932334720296 25.998743750290757 -5 0 3
381 110 3 -0.7 2.621875892801899 5.8611329076774386 35.679229083148854 -1 -3 -2
382 110 1 0.435 2.2380170089073466 6.32136185474169 34.949618209791026 -1 -3 -2
2067 542 6 0 1.0433302495534074 7.469022887561126 38.522632830574594 2 2 0
2065 542 7 -0.7 0.9461412227578276 5.2118217915489575 37.80913317168745 2 2 0
2434 634 4 0.435 -1.1680098149147806 0.9304090932639695 26.823224020415484 5 2 -4
502 144 3 -0.7 4.858374623132149 9.002974050797466 27.352565996576445 1 -1 -3
931 258 6 0 7.462589290466491 1.8074894304179732 30.57143392842272 4 -2 4
2610 678 4 0.435 2.273998280555419 3.6215584618416354 30.79399341946067 2 0 -1
536 153 3 -0.7 5.560489108042081 4.659708583145365 30.262092513634727 -2 -1 0
562 161 2 0.265 2.0015610762681786 6.2860062854024195 27.616919134549605 -5 0 3
2279 595 6 0 -1.1343130353303157 3.3809945936970642 34.290198187275195 1 2 -1
537 153 1 0.435 6.441304634204601 4.769550811217657 29.896087104070283 -2 -1 0
503 144 1 0.435 4.425215907935243 8.184404950325492 27.34679346976685 1 -1 -3
2608 678 5 0.265 0.4935042136894241 2.8693740771964054 30.315857747292817 2 0 -1
1191 323 6 0 7.7065514339142425 7.181406898254458 27.69187960530949 2 1 2
2567 667 6 0 3.533396877868216 1.3002141929721378 33.25007497178815 -4 3 -3
928 258 5 0.265 8.832401994834699 2.2999211781750644 31.037734942714692 4 -2 4
380 110 2 0.265 2.547874040064783 4.478366710372229 35.36985704949464 -1 -3 -2
2433 634 7 -0.7 -0.505488962542497 0.20623914993458659 26.632372267834977 5 2 -4
1333 359 7 -0.7 0.996964618335733 6.219294061515086 32.75350702957117 0 0 2
535 153 2 0.265 5.1372003118989 5.96541594010318 30.65922339463934 -2 -1 0
2064 542 5 0.265 1.6548615773406707 6.063640409773133 38.72436952840279 2 2 0
2432 634 5 0.265 0.7436131899338152 0.8226485638957364 26.38941200108753 5 2 -4
2400 626 5 0.265 4.25802257828159 1.8561665133423029 38.90199086241874 -2 3 -5
2609 678 7 -0.7 1.3628226154062784 3.934897133913722 30.738009080762943 2 0 -1
2565 667 7 -0.7 3.731234561631098 2.8134858137120466 31.32114552184284 -4 3 -3
1819 480 6 0 6.854440778386591 3.2288394239359652 35.39334854787455 2 3 -1
610 175 2 0.265 5.982327701279776 9.204790342632526 33.50627534723469 7 5 2
1334 359 4 0.435 1.3574678997048437 5.589564634292713 32.14167577723801 0 0 2
1188 323 5 0.265 8.20410011832423 5.7522843499015766 27.76088227695004 2 1 2
2566 667 4 0.435 4.432899095527634 3.1522780705680047 30.81875235683292 -4 3 -3
1817 480 7 -0.7 5.553813072028114 5.114966631109315 36.34535156350391 2 3 -1
1190 323 4 0.435 8.500170191224425 4.4106147455726274 29.185121639260736 2 1 2
2564 667 5 0.265 4.189223724870364 2.546976245624481 32.61294177998843 -4 3 -3
2575 669 6 0 5.503990694847768 0.1409928155804172 27.68074385596882 4 -2 -3
779 220 6 0 8.019386593902308 -0.4555615762901289 37.53340409792342 4 -2 0
2093 549 7 -0.7 -0.889276193560147 3.0947031858370533 37.941682538335385 -1 1 3
1189 323 7 -0.7 7.873134909593141 5.112623102326206 29.000845286285635 2 1 2
1818 480 4 0.435 4.711261055240168 5.455480500937031 36.04208634812841 2 3 -1
1816 480 5 0.265 6.201420497432663 4.584238209731865 35.166089817930285 2 3 -1
1437 385 7 -0.7 8.763634625652978 7.55662792982282 33.992157676532216 3 3 -1
2066 542 4 0.435 1.2273325510846647 5.597011352372262 36.971232504265444 2 2 0
1332 359 5 0.265 -0.10720621360255622 6.926420416229496 32.18207177002819 0 0 2
2092 549 5 0.265 -0.4648229931310919 1.7361825797528398 38.04568775509422 -1 1 3
612 175 1 0.435 7.828856343870495 8.825892903793925 33.898942984745375 7 5 2
1167 317 6 0 9.00487488005403 5.987092305599855 38.72024585468728 -2 3 -4
1438 385 4 0.435 8.789799502962493 6.946642443507048 34.723632880717446 3 3 -1
2417 630 7 -0.7 0.5021089994498578 13.238828380726288 3.82314530790715 -2 4 2
2416 630 5 0.265 0.8995732342995963 13.345054551755318 2.420526686210436 -2 4 2
1230 333 4 0.435 4.442041431050161 16.395779163578638 4.4344145843759515 1 0 -2
33 10 7 -0.7 8.775106103325545 9.625290392778858 9.190045283400423 0 1 -3
2221 581 7 -0.7 -1.2401286225918902 9.80661981360644 2.0072564653551694 -3 0 0
1228 333 5 0.265 5.189106879690833 16.104964250437536 2.6702008020195125 1 0 -2
1619 430 6 0 7.987876154341613 18.13934828013181 5.449285029298234 2 1 -3
516 148 5 0.265 8.696424813513342 11.40480491489818 0.09284953649341376 1 0 3
2251 588 6 0 5.112209519634226 13.654985119205728 7.37557387596201 2 -3 0
1231 333 6 0 6.038721621303931 16.88739439419381 1.6506634399364009 1 0 -2
2250 588 4 0.435 3.1843564568117184 15.233864137233649 6.135462801491695 2 -3 0
1229 333 7 -0.7 4.865808168928538 16.946814988837243 3.781824423526963 1 0 -2
279 80 6 0 4.312606971556802 11.135580162510358 2.7709208994756405 1 -2 5
372 107 1 0.435 3.9449275563203683 18.737126275749993 3.713547606470347 4 0 2
548 156 1 0.435 3.3104132678691 9.459476299012566 6.119669783871725 -5 2 -1
2051 538 6 0 0.7583315399120578 16.445714642313177 7.708669164200392 -1 3 -4
1265 342 7 -0.7 -0.8882330816809809 11.993126628509533 11.418358774793992 1 4 3
2049 538 7 -0.7 1.4813383751231841 15.157562046414824 5.708551025799843 -1 3 -4
839 235 6 0 3.066447898222619 15.708075301603767 11.281713124547904 -1 2 -3
2048 538 5 0.265 0.44168944152446166 15.315208013719328 6.687138858435415 -1 3 -4
2666 692 4 0.435 -0.6500208158422793 10.549280562083245 11.765732009876444 3 2 3
2248 588 5 0.265 4.634761512971721 13.984173700203984 5.9703295902024385 2 -3 0
1441 386 7 -0.7 2.570641119471899 16.801972100985754 -0.394656235141518 0 -3 -1
35 10 6 0 8.681478242667794 12.0445090402537 8.89202101454454 0 1 -3
547 156 3 -0.7 3.02712055116619 10.232623851361716 6.608205693154226 -5 2 -1
2419 630 6 0 1.6560428962118623 14.710296588016819 2.3658037209925005 -2 4 2
1267 342 6 0 1.1353643930727353 12.647238764888426 10.109642545291427 1 4 3
1440 386 5 0.265 2.3494704453642457 17.890428562395986 0.4786121960888521 0 -3 -1
276 80 5 0.265 3.272061127950219 10.170666488592245 2.231566516236956 1 -2 5
836 235 5 0.265 2.702644595145774 16.97926098268639 12.1000887170538 -1 2 -3
2418 630 4 0.435 -0.15975310441634538 12.59700671218326 4.047918624287808 -2 4 2
546 156 2 0.265 2.026414656505747 10.973472880766925 5.881392359670484 -5 2 -1
2050 538 4 0.435 1.0664016478910736 14.533218419588774 5.067897825912887 -1 3 -4
2249 588 7 -0.7 4.108458285828168 15.320793127049043 5.8339238736529095 2 -3 0
1443 386 6 0 3.1306063502039265 19.140278191376733 0.003838555251974962 0 -3 -1
2707 702 6 0 3.7877408987092505 10.070001868728344 10.039366636334139 4 -4 0
2665 692 7 -0.7 -0.7293116793741473 9.5902537110185 11.960766322358554 3 2 3
1951 513 6 0 6.262108489128329 9.902236673557363 6.709952810357866 0 1 3
1264 342 5 0.265 -0.43669100221307433 12.643163160443251 10.23151924190169 1 4 3
865 242 7 -0.7 -1.1405849052196277 11.197025976032547 4.172413246980408 -3 -3 4
1442 386 4 0.435 1.7057532977260488 16.439223793711133 -0.592910321129406 0 -3 -1
2347 612 6 0 8.110396584340513 16.27946326702453 8.960249824851674 -1 2 0
2704 702 5 0.265 5.084465620765263 9.215955109445026 10.007529100498159 4 -4 0
2222 581 4 0.435 -0.5251265737082867 9.222112803184254 2.279653894925422 -3 0 0
799 225 6 0 6.4805862721422525 16.583327764265594 15.399473730629243 5 -1 5
1893 499 7 -0.7 1.8197762469110037 12.827266448370306 20.22772043998119 0 1 0
676 193 3 -0.7 6.295482977115997 18.059770961925814 22.97632395006663 5 -1 -4
1720 456 5 0.265 1.8669555557570892 17.09490277191807 25.214807266507858 3 0 2
123 36 2 0.265 1.7514751220990452 11.206219028537548 23.574200208656954 1 0 1
481 138 7 -0.7 1.2020700303285938 17.055799481947567 19.896393855340616 -1 1 0
2004 527 5 0.265 2.9680717025362444 18.648627220683444 15.74741835679027 -3 -2 -1
1464 392 5 0.265 5.4865609360896075 12.48288525149847 21.4330864296565 5 2 -5
407 118 5 0.265 7.50488209134763 11.89490602231872 17.12442560217711 3 -3 -5
2689 698 7 -0.7 5.604339426355751 11.835790066917179 13.776308423840316 -1 0 0
1467 392 6 0 5.657835683097313 13.87093722859274 20.74269415858654 5 2 -5
1245 337 7 -0.7 0.6486636244271908 14.322593341609764 23.207997556096622 -3 4 1
2690 698 4 0.435 5.256160425289217 12.419179524833988 14.420379649397194 -1 0 0
1892 499 5 0.265 1.8897608952566323 11.422150985860592 19.81893143495217 0 1 0
124 36 3 -0.7 2.222580305641334 12.38660248042117 22.88794189965249 1 0 1
77 23 3 -0.7 -0.46206071197721077 19.146866578962616 20.53552873229939 -3 1 -1
1721 456 7 -0.7 0.5662731370938479 16.613283014253376 24.841633773380522 3 0 2
1465 392 7 -0.7 6.167468432723346 11.46649595305543 20.728750170222806 5 2 -5
1200 326 5 0.265 1.3020680623787664 13.283179673471503 13.769679899466391 -1 -4 -3
1723 456 6 0 1.9334895650380841 18.65661528226402 25.122983610176107 3 0 2
2688 698 5 0.265 5.255518195869935 12.560863601933535 12.566635848337762 -1 0 0
1989 523 7 -0.7 7.605779820494478 14.427893965545422 25.363882463405574 2 1 -5
1789 473 7 -0.7 4.467125153424275 13.234582754126615 15.761849985333388 3 1 0
1722 456 4 0.435 -0.010776938576646966 16.979695489785893 25.488881680874417 3 0 2
1790 473 4 0.435 3.690574927864281 13.598584078550884 15.324017648574596 3 1 0
1991 523 6 0 5.842280451559957 12.721776168443455 25.28573970002443 2 1 -5
1895 499 6 0 1.6751793857896091 11.231538146268086 18.29748329504599 0 1 0
837 235 7 -0.7 2.2680825928988724 16.41730973097639 13.326082674875295 -1 2 -3
2005 527 7 -0.7 1.936245766026944 18.561200623075795 14.763542113093257 -3 -2 -1
617 177 7 -0.7 7.103174190186197 17.882629518078797 18.48813605625472 1 4 0
1429 383 7 -0.7 0.1724390617725593 14.635959642815791 19.228703878863037 2 -3 1
1428 383 5 0.265 -0.40096374691816106 14.6395284689378 17.919266497836766 2 -3 1
1203 326 6 0 1.4434193209272261 11.832653074835425 14.215100863377154 -1 -4 -3
1201 326 7 -0.7 2.4763162460769923 13.978428085753945 14.1980946508858 -1 -4 -3
825 232 7 -0.7 6.703891604552501 9.418581597430315 13.141451066046136 4 -2 1
677 193 1 0.435 6.870576602508182 17.755046383633847 22.289243961804512 5 -1 -4
1791 473 6 0 3.9754990871110785 14.815773530449293 17.51523891764919 3 1 0
1894 499 4 0.435 2.25761141185465 12.773391351892654 21.064845510290965 0 1 0
125 36 1 0.435 1.8171204825724026 13.20301689291559 23.189626605458333 1 0 1
1244 337 5 0.265 -0.4850964188811312 14.458432739303923 22.367938660562434 -3 4 1
1246 337 4 0.435 0.5146966137381668 15.016388388247654 23.872155324826714 -3 4 1
482 138 4 0.435 0.6760010600861728 16.292634336199477 19.7171773668933 -1 1 0
1466 392 4 0.435 6.0808721880106615 10.619920749324963 21.17701227754201 5 2 -5
1788 473 5 0.265 4.30974854380637 13.338076708609416 17.18642551436361 3 1 0
838 235 4 0.435 2.1162202424254892 17.149322921890775 13.956795121018624 -1 2 -3
1202 326 4 0.435 2.460140754737704 14.895002054143204 13.908636251398672 -1 -4 -3
2691 698 6 0 6.303421385821458 13.687500852319937 12.724562323089108 -1 0 0
1430 383 4 0.435 0.868855935062157 14.008704474693442 19.37591674944813 2 -3 1
76 23 2 0.265 -1.043273028932349 18.68671822651604 21.74558255524786 -3 1 -1
675 193 2 0.265 5.727038232547473 16.87666215829211 23.598594956172885 5 -1 -4
1646 437 4 0.435 7.478162057426138 17.39255709159561 20.19436340643578 2 3 -1
618 177 4 0.435 7.421620246159186 17.686600295992733 17.648149039708414 1 4 0
483 138 6 0 2.918386511732802 17.798085123795005 21.35136535628478 -1 1 0
797 225 7 -0.7 8.67083448593043 17.363493694519626 16.207252350530904 5 -1 5
1645 437 7 -0.7 7.801968061311609 16.949257798371494 20.986357626987413 2 3 -1
826 232 4 0.435 6.34515939253121 10.25875646666771 13.430855266513106 4 -2 1
2007 527 6 0 2.230704222602279 18.630762974520692 17.07756394112888 -3 -2 -1
796 225 5 0.265 7.978154489306979 16.863872614966333 15.048163538793666 5 -1 5
409 118 4 0.435 7.375486064713323 11.505122948444521 18.95272164180285 3 -3 -5
616 177 5 0.265 6.687706372456836 19.233288568797256 18.356653574118614 1 4 0
480 138 5 0.265 2.4056374042834134 16.608416682125256 20.5285954549511 -1 1 0
78 23 1 0.435 0.1103873072893482 18.41812908688082 20.25783628229631 -3 1 -1
410 118 6 0 8.297342805505753 12.85132496165511 16.198846078172334 3 -3 -5
1431 383 6 0 -0.9831174452963991 16.01504836945187 17.534773522522602 2 -3 1
408 118 7 -0.7 8.10794751216922 11.495824507055055 18.365292562403777 3 -3 -5
241 69 1 0.435 5.780134682509336 12.489209884167792 35.34178856913819 0 1 2
857 240 7 -0.7 3.7976303544777874 13.236203321183956 28.835950546863156 0 3 3
1250 338 4 0.435 1.8982784896588747 12.200934496101398 32.00979021618416 -2 -1 1
1547 412 6 0 8.490687431480715 15.051891574067113 39.14009002931833 -3 1 1
1544 412 5 0.265 7.210267692441301 15.192425253324725 38.29013553975703 -3 1 1
762 216 4 0.435 3.611563596205017 12.402819502739627 36.71272394804062 5 -2 4
437 126 4 0.435 2.4557253330848354 12.817001624671578 27.541837377809 -2 0 1
763 216 6 0 3.74779716961175 13.743322749526131 39.229316899065765 5 -2 4
2671 693 6 0 1.3349152527878365 9.612515948375083 35.015246949389436 -2 2 3
1688 448 5 0.265 1.9142580414572712 18.892215162103252 32.66038495385989 3 -6 -2
239 69 2 0.265 4.413254794694807 12.77373550380615 34.05899315534735 0 1 2
859 240 6 0 5.868433373641616 13.642585325796018 29.75131680785311 0 3 3
1248 338 5 0.265 2.3576136035352677 10.767753029728876 30.765307822499047 -2 -1 1
501 144 2 0.265 3.8998365456063544 9.957414874184453 26.804221956461713 1 -1 -3
1768 468 5 0.265 0.26030213156623105 14.665875248107646 35.33539987143732 3 -2 -3
2461 641 7 -0.7 -1.058750472128118 17.897684117953002 26.4301221445405 -2 -3 2
1249 338 7 -0.7 2.502135905270402 12.133674269988122 31.250110067370134 -2 -1 1
142 41 1 0.435 3.048310874343078 16.93156828110555 37.952022960940255 0 6 0
161 47 3 -0.7 1.7122628302001703 16.03324872643802 29.982576314737113 1 -1 -2
1509 403 7 -0.7 6.036233423352818 18.297049210198146 37.49596085524179 -1 2 4
1770 468 4 0.435 1.107766819594509 13.755105335885437 36.75933948999767 3 -2 -3
1769 468 7 -0.7 0.4697226123288307 14.405858146107056 36.73722255599536 3 -2 -3
1663 441 6 0 -0.3853219718976987 18.3463477504966 37.57970631123865 0 -2 3
2488 648 5 0.265 7.1822323996447945 17.116815514473057 31.969330507438702 0 0 1
2489 648 7 -0.7 8.623265668811932 16.977947900765667 31.784347342685894 0 0 1
253 73 1 0.435 7.740559799864204 10.956375253988812 34.852185745439954 -1 -1 2
2119 555 6 0 7.786050951799645 19.160601552531695 26.602266913529125 4 1 -4
601 172 4 0.435 2.1575610717865095 17.41172521805068 29.25874144794916 -1 0 1
1690 448 4 0.435 0.30464195034831354 18.806318099415375 33.793180739595 3 -6 -2
436 126 7 -0.7 1.6420033118089705 12.54189579177806 27.175898789249995 -2 0 1
1546 412 4 0.435 6.916070076981075 16.704229286425402 37.13200481482387 -3 1 1
160 47 2 0.265 1.2170970473553218 15.632911129075534 31.246456078997543 1 -1 -2
2117 555 7 -0.7 8.17532915100126 16.776390514535127 26.834592864377793 4 1 -4
856 240 5 0.265 4.820432958139384 14.210476885840185 28.84297820221447 0 3 3
240 69 3 -0.7 4.8552969109941015 12.66003280854407 35.39189086616025 0 1 2
251 73 2 0.265 7.529507590346249 11.399574701821534 36.816991874459035 -1 -1 2
761 216 7 -0.7 2.786331645966432 12.672920019468139 37.11754234766589 5 -2 4
2116 555 5 0.265 8.461969066081423 17.941359543053938 26.064036206177352 4 1 -4
141 41 3 -0.7 3.5416015525520894 17.399937283200458 37.30727595296693 0 6 0
1689 448 7 -0.7 1.0473739609233794 18.231693393728463 33.603554714877916 3 -6 -2
252 73 3 -0.7 7.3953390761982245 11.6483349010526 35.407463969935776 -1 -1 2
1510 403 4 0.435 5.146865564790703 17.994243587352248 37.60850814046047 -1 2 4
140 41 2 0.265 3.497834732588469 16.488077680378517 36.206018978430606 0 6 0
760 216 5 0.265 2.9545811206179335 12.569609314982173 38.54767684690789 5 -2 4
2668 693 5 0.265 -0.14800123892634165 9.923962483964994 35.38986789361735 -2 2 3
1771 468 6 0 -0.7276396591450576 15.82627434949418 35.11181894987699 3 -2 -3
858 240 4 0.435 3.7775298069188974 12.8788180152524 29.694011962005845 0 3 3
162 47 1 0.435 1.7536702393761705 15.24747987733981 29.471478188516578 1 -1 -2
435 126 5 0.265 1.0079403509472393 13.528627631183355 26.374002255945737 -2 0 1
687 196 1 0.435 0.535379942379276 15.037735961509854 38.32609471592973 -1 2 1
611 175 3 -0.7 7.359507661765752 9.646507587374147 33.62558969947429 7 5 2
686 196 3 -0.7 0.2648481453413398 15.419949962155414 39.16498025267002 -1 2 1
1545 412 7 -0.7 7.470237723959016 15.9061008451519 37.08779630534326 -3 1 1
438 126 6 0 -0.35218772028319834 12.924505576414933 26.047965485219944 -2 0 1
2633 684 7 -0.7 -0.18173405375959062 12.256437296879408 32.57692382345196 4 -1 -3
2491 648 6 0 6.705764900841775 17.918585389270415 30.738156449010766 0 0 1
2634 684 4 0.435 -0.3475658459130575 11.676836515399382 33.329532016460206 4 -1 -3
2669 693 7 -0.7 -0.8468500314593845 10.314412507510411 34.251178589569975 -2 2 3
746 212 4 0.435 8.859773493910447 10.107999577943241 32.269329665972634 1 3 2
599 172 5 0.265 3.8663970917171175 18.412918569780743 28.881469268955613 -1 0 1
2462 641 4 0.435 -0.7627084865064154 18.60809234122677 27.05968807680597 -2 -3 2
1988 523 5 0.265 6.97920863851353 13.317216970401608 26.11033485470878 2 1 -5
600 172 7 -0.7 2.420315096998904 18.1983848347461 28.744085716073375 -1 0 1
1990 523 4 0.435 7.701298418285706 15.186627227452721 25.97791724708295 2 1 -5
165 48 4 0.435 0.762819998818971 19.017621053720024 28.57329719689595 -1 -2 3
1251 338 6 0 3.7520928536799083 10.348481604492525 30.247450333273548 -2 -1 1
1691 448 6 0 3.242753184374955 19.288293082949508 33.387408108934366 3 -6 -2
722 206 4 0.435 8.75867290626294 15.385680908882197 35.904233776006734 0 3 5
163 48 5 0.265 -1.0034471011649098 19.144068884643975 29.55310917158548 -1 -2 3
2118 555 4 0.435 8.700839519180228 16.842927819785896 27.64680245305965 4 1 -4
2490 648 4 0.435 8.948822724168897 17.017833965653445 32.677736883834484 0 0 1
164 48 7 -0.7 -0.1541068406057895 19.323540726141346 28.424693047410006 -1 -2 3
685 196 2 0.265 -1.1914688948881988 15.388407829576089 39.25740750717081 -1 2 1
964 267 5 0.265 -1.2166828291303176 20.377334059685346 9.169109913011722 5 -1 4
60 18 3 -0.7 0.7565683058339236 24.58894984110103 0.6852735004009216 0 -4 -2
446 129 7 -0.7 4.399393991015238 23.61852618827431 11.25347921131491 2 -1 -1
374 108 7 -0.7 4.100851057859009 23.717732747933866 5.590199217279361 -2 -1 -1
1153 314 7 -0.7 7.948026697817513 27.77474022529578 9.032171583433549 4 3 0
999 275 6 0 6.487336838188354 29.422575108641787 5.5154166333781856 -2 -4 -2
1324 357 5 0.265 2.7811121741467577 25.95828633292774 8.698270108204376 2 0 -7
2348 613 5 0.265 1.1344949748707203 21.764973901504323 5.2293937190332755 3 4 -1
625 179 7 -0.7 7.014938171992515 21.22653754834566 4.215268567524205 4 0 6
1326 357 4 0.435 2.568798163527627 23.95680793399006 8.693972683051056 2 0 -7