LAMMPS data file via write_data, version 29 Aug 2024, timestep = 4000000, units = real

2559 atoms
7 atom types
1830 bonds
5 bond types
1101 angles
3 angle types
1116 dihedrals
3 dihedral types

-0.6400217204161827 39.581141720395685 xlo xhi
-0.2943142421808318 39.03142424215255 ylo yhi
-0.18993499241218714 38.62815499241557 zlo zhi

Masses

1 1.008
2 15.011
3 15.999
4 1.008
5 14.011
6 15.011
7 15.999

Pair Coeffs # lj/cut/coul/long

1 0 0.4
2 0.195 3.75
3 0.185 3.02
4 0 0.4
5 0.0914 3.95
6 0.195 3.75
7 0.185 3.02

Bond Coeffs # harmonic

1 1000 1.43
2 1000 0.945
3 1000 1.54
4 1000 1.43
5 1000 0.945

Angle Coeffs # harmonic

1 55.045 108.5
2 55.0452 108.5
3 50.0772 109.47

Dihedral Coeffs # fourier

1 3 0.416953 1 0 -0.0579664 2 180 0.373453 3 0
2 3 0 1 0 0 2 180 0 3 0
3 3 0 1 0 0 2 180 0 3 0

Atoms # full

2503 712 5 0.265 6.73581109628991 2.7009724029655144 3.6519134925619574 2 3 -1
1008 287 6 0 0.3541514026135095 0.8830634371718344 11.343371686595042 1 1 -3
2506 712 6 0 5.4566323552973115 3.333402042733372 3.1084680253884125 2 3 -1
1644 469 2 0.265 2.0383640438882593 4.315735252654677 1.3556018629568347 -2 2 -2
520 147 2 0.265 3.197430350422045 9.157552568255005 6.738011627527771 1 0 2
1276 364 3 -0.7 1.242008634335663 6.170063337940958 6.755475608952183 3 0 6
1646 469 1 0.435 1.2764649629656954 6.115586521591733 1.0268867380518623 -2 2 -2
2505 712 4 0.435 8.557262621728677 2.668117388286287 2.9871715525678573 2 3 -1
1537 437 6 0 5.7091115037601865 5.984760208527504 0.7856798343263898 4 2 1
598 170 3 -0.7 0.7622396173531409 7.437139308775266 2.0398269898569663 -1 0 0
1799 513 7 -0.7 -0.1151393331594347 7.007433590098149 4.60356479453507 2 1 -1
554 157 6 0 1.860524075009704 4.463282250181948 11.249625513535067 0 1 2
1086 308 4 0.435 0.37987219757152824 7.583186063875112 11.667939862948272 3 3 1
597 170 2 0.265 0.4927560703407212 8.772798196361956 1.6149491157026736 -1 0 0
198 56 7 -0.7 5.981347351118614 2.4042685549170617 10.257445915154658 2 -1 -2
551 157 5 0.265 0.9447963054665525 4.366103844244443 12.50341744226742 0 1 2
200 56 6 0 5.396552611315169 3.344748531312123 8.06848639953917 2 -1 -2
1534 437 5 0.265 6.950928258698378 6.336562914192979 -0.06732961911858552 4 2 1
1797 512 1 0.435 7.489931192815419 3.011727086215949 0.9241337975337731 1 -3 3
1796 512 3 -0.7 7.544453252690872 3.027662946082841 -0.027748739499958625 1 -3 3
555 158 2 0.265 7.594464695532768 -0.028704617097652374 8.219145828163919 -1 4 -1
1275 364 2 0.265 2.1585466466504966 5.092667530016824 6.613517898799541 3 0 6
199 56 4 0.435 5.677335384116861 2.477354541173036 11.14520552757515 2 -1 -2
2504 712 7 -0.7 7.708195502927008 2.9478403927976555 2.6562128354950905 2 3 -1
2265 645 4 0.435 8.797035308675085 8.410311243863607 4.354264396315668 5 -2 5
2263 645 5 0.265 8.421133112827484 6.572341859391901 4.219119290372293 5 -2 5
1373 392 6 0 4.710246880479774 9.52563683991486 3.4084458630908467 4 6 1
1800 513 4 0.435 0.4801336245918102 6.7533177695359115 5.304407815534293 2 1 -1
830 236 6 0 8.550794586980926 8.5495715425277 8.193009811425503 2 2 -1
2266 645 6 0 6.898209910095136 6.536884999739974 4.413043219338208 5 -2 5
557 158 1 0.435 6.978027838162268 1.2165997853362571 9.61040447328562 -1 4 -1
1085 308 7 -0.7 0.16576681417313077 8.090847427388457 10.89831293213164 3 3 1
595 169 4 0.435 9.355404650675844 0.05338988183444776 10.417719576747729 -1 -3 -3
556 158 3 -0.7 7.8012730403703685 0.7710884044079207 9.396255107785866 -1 4 -1
197 56 5 0.265 5.854514873369034 3.6197047141724163 9.546103672726927 2 -1 -2
552 157 7 -0.7 0.1817176093781495 5.585873986330504 12.638629850267607 0 1 2
847 242 5 0.265 7.558468565640391 5.194400918995618 12.264018676423007 -1 2 -1
599 170 1 0.435 0.2904779390441824 7.4083284362789525 2.8809191429348378 -1 0 0
2264 645 7 -0.7 8.915170625753772 7.78823127693752 3.6534300258590005 5 -2 5
311 88 5 0.265 3.86601194975064 -0.15281856635904092 9.246961502484801 4 -4 -1
1277 364 1 0.435 1.700179592385362 6.91389944421899 7.1942169544402095 3 0 6
1645 469 3 -0.7 1.367505711379318 5.299384072323656 0.5327563955961644 -2 2 -2
522 147 1 0.435 2.3412267183191084 9.230125967074908 8.36886093967284 1 0 2
848 242 7 -0.7 8.573372186350822 6.088653480828099 12.73352427509903 -1 2 -1
521 147 3 -0.7 2.3634947082702253 8.571249658444092 7.703565939313433 1 0 2
828 236 7 -0.7 8.630068437179425 9.248734197053729 5.936072213514104 2 2 -1
610 173 4 0.435 -0.4940741494631998 8.54310296846891 5.175011246279188 2 -2 -2
1037 295 4 0.435 1.7605073423227817 9.145229083950849 10.199069844887905 2 0 3
812 231 6 0 2.516485905138795 5.095201835508996 23.039994990318835 -1 1 -1
21 6 4 0.435 0.5357641709039151 4.499317472426668 18.9105465864949 0 3 -3
1112 316 7 -0.7 2.5237315568617555 1.9047924019694973 21.075698040279168 -1 3 -3
1156 329 1 0.435 5.200977914262987 1.2556373145513078 13.162835075289195 3 -4 0
978 279 4 0.435 9.401893634894714 0.717259790894796 24.99319770603162 0 4 1
22 6 6 0 1.2300024117889874 3.87902416000969 16.30081516423719 0 3 -3
412 116 2 0.265 7.530526958330707 3.6807914075936825 20.077817037598855 -1 -1 -1
1760 502 3 -0.7 3.220379248398944 5.721774212424446 18.160958219614002 -2 -2 0
4 2 2 0.265 5.540847668701212 8.179630211796054 17.867807288149674 2 0 -2
2543 724 3 -0.7 0.26976909169703234 3.218679929005689 19.836745843594528 1 -3 2
810 231 7 -0.7 3.9883210066212627 3.160318422543319 23.1163495808916 -1 1 -1
2423 690 6 0 8.146958955682347 0.187957164191422 14.276441451935916 2 -1 3
976 279 5 0.265 8.574175589119259 2.4330069204440203 24.447883622850497 0 4 1
2238 637 2 0.265 2.16071251933761 7.612081433703306 25.601169062600714 1 -2 2
856 244 1 0.435 8.661940261801071 8.158080366945569 23.322525284392444 1 0 0
1761 502 1 0.435 2.2441046184851796 5.725541558423358 18.13509551068654 -2 -2 0
811 231 4 0.435 3.654634618834102 3.000511279950217 23.991306679265627 -1 1 -1
1061 301 6 0 0.6119837685664757 9.0188588750142 20.98860539879605 2 2 -1
850 242 6 0 6.322606105971449 5.604770471391391 13.067158723562022 -1 2 -1
615 175 5 0.265 2.45975948109001 8.39198944364472 16.014274485163693 3 0 0
2239 637 3 -0.7 1.581520851114674 7.976938161239204 24.341391203164232 1 -2 2
553 157 4 0.435 -0.5686123661573425 5.364745956412708 13.168810292617335 0 1 2
19 6 5 0.265 0.13198713029346942 4.6307231360144305 17.10664972140201 0 3 -3
1111 316 5 0.265 1.822495976720786 0.9195549511785157 21.81631428507988 -1 3 -3
5 2 3 -0.7 5.386177535977425 8.714124409844842 19.198676540653377 2 0 -2
617 175 4 0.435 0.7746667119255397 9.306540664791175 15.618948916812997 3 0 0
855 244 3 -0.7 8.007895468583207 8.574757535769091 23.875447735296323 1 0 0
20 6 7 -0.7 0.6087694475132115 5.226708434715372 18.301153509764312 0 3 -3
422 119 2 0.265 6.502506972497896 0.15230101960920506 21.962081621759726 2 0 0
424 119 1 0.435 8.389894098989942 -0.2630417806836802 22.381420587755233 2 0 0
849 242 4 0.435 8.894499594782452 5.744463582100366 13.568917099318117 -1 2 -1
1759 502 2 0.265 3.5171549243265066 5.041837212438884 19.333398267032564 -2 -2 0
2544 724 1 0.435 0.9591091197959358 2.7946183921237973 20.366371962090756 1 -3 2
809 231 5 0.265 3.9961943651929106 4.578531228958121 23.071329135053578 -1 1 -1
854 244 2 0.265 6.731503218330726 8.13163916263827 23.362107587322868 1 0 0
423 119 3 -0.7 7.917803206309353 0.22022526603623072 21.714728340365085 2 0 0
1058 301 5 0.265 1.6543196839910532 8.410834398266742 20.029307719098295 2 2 -1
1059 301 7 -0.7 2.6787165738275576 7.896202647630236 20.855352432879485 2 2 -1
2234 635 6 0 4.4912396917988655 0.939739530731551 18.01525554686943 -2 1 -2
1113 316 4 0.435 3.168525598495735 2.269084417652366 21.742172935528526 -1 3 -3
2035 579 6 0 9.26501980581352 8.712825266695026 18.13712196079704 1 -3 1
618 175 6 0 2.747909235839254 7.855163602159953 14.625424427932979 3 0 0
2061 587 4 0.435 -0.09098900836703339 7.512092335740012 24.196129900914592 5 0 -2
1805 515 2 0.265 0.04686379602372226 0.3888425317096117 15.59042368709462 -1 0 0
154 43 2 0.265 7.833427870446863 8.795314575332753 14.317257801117027 0 -1 0
413 116 3 -0.7 8.34448884827349 4.709690423797879 19.54163571378847 -1 -1 -1
2240 637 1 0.435 2.2268319122699 7.984854221720536 23.641386810675357 1 -2 2
1060 301 4 0.435 3.5583182737498245 7.868005803529506 20.457863673233522 2 2 -1
414 116 1 0.435 9.003031266859495 4.2879781173893665 18.985014880735232 -1 -1 -1
2033 579 7 -0.7 9.052566588425739 7.22681613814903 19.968629225716782 1 -3 1
1154 329 2 0.265 4.326870252085212 2.660039470958479 14.121544822911476 3 -4 0
2034 579 4 0.435 8.577210640813538 6.431413605703855 19.716854773471745 1 -3 1
979 279 6 0 9.276364458002982 3.6604032400124566 23.830458771604157 0 4 1
1155 329 3 -0.7 4.849502293860855 2.0830240756596075 12.922926866820351 3 -4 0
317 89 4 0.435 8.960316180963478 9.02001837699669 25.161064584067752 0 0 2
118 32 2 0.265 7.0809015487058735 3.815833263865427 30.366155188478466 2 1 -1
55 15 4 0.435 6.113391533710441 2.0574981541614457 34.3839246342214 0 4 -2
2559 729 1 0.435 0.384018572839089 5.146722046691205 37.85333674753305 5 0 -2
2175 618 6 0 3.4669807301010014 1.7186670591323678 32.105029485922415 3 -1 1
633 180 2 0.265 7.722628870379074 0.5744947643128021 32.36872113816443 3 -2 5
2172 618 5 0.265 3.3636428986548923 1.5567483857679933 30.54697993295975 3 -1 1
53 15 5 0.265 5.373115973756517 3.4142766471072368 35.529680206080485 0 4 -2
634 180 3 -0.7 7.233554482620332 1.72459943041966 33.01727285640962 3 -2 5
2367 674 1 0.435 1.5582905175104198 7.521505925700564 30.42175703915377 2 -2 -1
1441 411 4 0.435 4.7292469495851 0.8968274177818139 28.31294175579453 0 1 -5
241 69 5 0.265 1.9924906451004452 3.1839648708481425 26.32973561311053 1 -2 -2
120 32 1 0.435 7.8843884965912405 4.824948745529796 31.747091820981748 2 1 -1
1439 411 5 0.265 6.032257331621465 0.5426024136297126 26.91950975205661 0 1 -5
635 180 1 0.435 7.468589871075583 2.4560250289164216 32.43958201779046 3 -2 5
1236 352 6 0 6.34910889481537 7.987409553576555 33.55877028919657 -3 -1 1
2366 674 3 -0.7 2.483852719469259 7.67372795029166 30.225534244410127 2 -2 -1
2256 642 1 0.435 8.110585051787002 5.461343417430623 36.4674558663158 2 -1 -4
2168 617 5 0.265 4.8619190324723025 9.524988266853436 28.01934376229602 -2 3 1
56 15 6 0 4.228117262622682 3.5310018903704816 36.56262141801375 0 4 -2
2365 674 2 0.265 3.204320064004246 6.4552549393547345 30.41338097964336 2 -2 -1
243 69 4 0.435 3.8129531008612734 2.3350785175494213 26.310373732885054 1 -2 -2
1519 433 7 -0.7 -0.21151259977335785 7.950905470993151 36.18044233080704 2 1 -3
1235 352 4 0.435 7.976180957758464 6.0974458298884135 34.13983593905256 -3 -1 1
119 32 3 -0.7 7.881180323610305 3.9358415043257766 31.514373490282996 2 1 -1
54 15 7 -0.7 5.321126229958271 2.143920908679003 34.89081136997977 0 4 -2
2173 618 7 -0.7 4.1317102673829424 0.44080322739197453 30.064129569666612 3 -1 1
1233 352 5 0.265 7.615952312308117 7.456039632354283 32.835093868866096 -3 -1 1
383 108 4 0.435 4.859863347536359 0.370372449007209 34.913356029619464 -1 -4 1
2558 729 3 -0.7 0.08545965013799883 5.487837993777151 37.0251442371157 5 0 -2
2170 617 4 0.435 3.556442759715912 8.554516030952138 29.03353821509411 -2 3 1
2255 642 3 -0.7 8.758361015598783 5.5036086018224655 35.73973510951052 2 -1 -4
2254 642 2 0.265 9.20791436365665 4.207503610795564 35.377634664606816 2 -1 -4
244 69 6 0 2.0777136827414533 4.463814882134275 27.12492301810618 1 -2 -2
1518 433 5 0.265 0.25546173149716045 7.929181265788186 34.814569278602576 2 1 -3
1234 352 7 -0.7 7.791821321183118 6.071228735054126 33.20029138392397 -3 -1 1
2169 617 7 -0.7 3.506815610323187 9.288905237917819 28.42658499216111 -2 3 1
1440 411 7 -0.7 4.842306724241382 1.2009707780499432 27.415958868084754 0 1 -5
242 69 7 -0.7 3.2620563557725655 2.8535202822213273 25.74896357316756 1 -2 -2
1952 557 2 0.265 -0.4939201788446515 1.622168884493369 28.23588472460287 2 2 -2
1535 437 7 -0.7 7.09386780166623 5.371766479459248 37.70957027608627 4 2 0
826 235 6 0 -0.47797264587443533 0.5028320636882183 35.74678974956639 0 1 0
2557 729 2 0.265 -0.36603960635274224 4.347635685161169 36.240314326848136 5 0 -2
1795 512 2 0.265 8.297943309433458 1.8545924196741326 38.52220405601288 1 -3 2
1536 437 4 0.435 7.204246530126515 4.50481455278848 38.07897482894715 4 2 0
1520 433 4 0.435 0.10346553993194862 7.083768332106493 36.504166338633766 2 1 -3
2342 667 3 -0.7 0.038186137213965576 6.8665377513873604 30.521697054102148 0 0 1
2174 618 4 0.435 4.209054990364816 -0.1959251954600439 30.779137463485572 3 -1 1
2343 667 1 0.435 -0.23304945853097903 5.943279286636055 30.688355338800996 0 0 1
797 227 4 0.435 0.7487744382322343 9.490033497110367 37.43382983504877 -2 -3 -1
1035 295 5 0.265 3.4305813718146982 9.787923291441675 11.056684326445453 2 0 3
2131 606 1 0.435 0.13003666197381902 15.886038473195342 2.6125882696038967 0 6 0
1195 341 2 0.265 8.456523428549591 17.991037490507026 6.180208640568283 -4 -4 5
1907 544 1 0.435 5.262291286399674 11.969179595843826 5.4206692948848705 0 2 2
1906 544 3 -0.7 4.848980451995433 12.676156995648906 5.91271266280004 0 2 2
829 236 4 0.435 8.230598620241025 10.058602647101738 5.57618822890606 2 2 -1
2539 723 2 0.265 8.284296518852798 12.975273729369642 6.663490685814013 -1 -3 0
2348 669 3 -0.7 2.6828112313469017 16.79786840612129 10.815817829304981 1 2 0
1372 392 4 0.435 6.470263156431688 12.086532404040103 3.775053462670827 4 6 1
1980 564 1 0.435 8.839700991422756 15.66522009721718 9.912493724501571 -2 0 -2
152 42 3 -0.7 6.826142658095825 13.77113178386724 3.252890681459923 0 1 1
1905 544 2 0.265 3.493428335901285 12.904873073183817 5.456287846752844 0 2 2
1197 341 1 0.435 7.2843108789282995 16.70271506314147 5.325679622943423 -4 -4 5
827 236 5 0.265 9.17695592383434 9.57900103322823 7.2073641087312375 2 2 -1
1375 393 7 -0.7 5.857893739039522 15.652739218059654 6.013609725415078 2 -3 -3
2347 669 2 0.265 2.2239077232114526 18.017768969816654 10.275147774156627 1 2 0
531 150 1 0.435 8.59030764236048 17.362985680384508 10.889471271283774 -4 2 0
477 134 1 0.435 3.382116318690639 19.2217659219951 2.2210861054651585 2 3 1
1789 510 4 0.435 2.4137465458452683 15.389212546408135 9.59103836975464 -1 3 5
151 42 2 0.265 6.252174161114779 14.561575010689388 2.2526222290491664 0 1 1
1864 532 1 0.435 1.6480660483641554 17.137037694496463 2.4227439303886453 4 1 -2
530 150 3 -0.7 8.387303860791116 17.37317982293376 9.965834007343263 -4 2 0
2349 669 1 0.435 2.9303352186797604 16.830871071612062 11.74807585223099 1 2 0
1376 393 4 0.435 5.71176689947769 14.7217629986918 5.917236753380727 2 -3 -3
1371 392 7 -0.7 6.193886618327078 11.298852510419042 4.21103481799496 4 6 1
1370 392 5 0.265 5.8923919741036155 10.437731549491794 3.1085135582280654 4 6 1
1787 510 5 0.265 2.0147787847366625 13.505633219893992 9.21671343147924 -1 3 5
1196 341 3 -0.7 8.094991021077945 17.137191292200118 5.091397994118366 -4 -4 5
1863 532 3 -0.7 2.3879940336320615 17.724814132640134 2.634525053835038 4 1 -2
153 42 1 0.435 7.747746593563404 13.976388015315909 3.258998453133346 0 1 1
608 173 5 0.265 -0.4767447319944287 9.649830270179976 6.7285514191013 2 -2 -2
1038 295 6 0 4.866978468590963 9.795957767350153 10.475560156608251 2 0 3
1788 510 7 -0.7 2.0384309979761883 14.921417156022102 8.863714864526356 -1 3 5
1862 532 2 0.265 2.919041232411604 17.249850887902365 3.864135402840267 4 1 -2
1374 393 5 0.265 5.1667162789370575 16.16920020328281 7.160268005056198 2 -3 -3
1036 295 7 -0.7 2.44510790604747 9.755243843876045 10.017672325950379 2 0 3
2309 658 3 -0.7 0.2079484858790086 15.462228989999444 4.423749707480646 4 0 -1
1377 393 6 0 5.60012425936701 15.328014385067318 8.388976317788618 2 -3 -3
1790 510 6 0 0.8734195639023776 13.253998758774154 10.232463444230323 -1 3 5
484 136 1 0.435 1.167239586530329 15.983090882991878 7.646825180263208 0 0 1
2130 606 3 -0.7 0.09057461344760354 16.60048134003018 1.9827987885787381 0 6 0
529 150 2 0.265 7.688538418389616 18.619322883700107 9.761391123570041 -4 2 0
483 136 3 -0.7 0.9599192317261658 16.437656474990987 6.82245930635571 0 0 1
2308 658 2 0.265 -0.46768270144612867 14.208447493457552 4.6585996141566985 4 0 -1
482 136 2 0.265 0.7324130555706274 17.811050600319128 7.0982260717820145 0 0 1
2321 661 4 0.435 9.025781128741304 15.3893729055115 4.313792577425015 0 -2 -4
2310 658 1 0.435 0.5410705119115504 15.744565771820291 5.294298294866682 4 0 -1
1979 564 3 -0.7 9.39850547848981 14.877533819877302 9.96293845302375 -2 0 -2
1044 297 7 -0.7 1.411688182544232 17.529904391338995 17.255045508087175 -2 -2 0
1362 389 1 0.435 3.432824859182853 19.316782863449507 24.26462672059607 5 -3 -1
367 104 5 0.265 0.3268270498777034 17.240812061105647 24.610990846518824 0 2 0
1446 412 6 0 7.820115078676155 15.06715007198848 20.17021014952066 -3 0 1
207 59 2 0.265 4.992428494345217 11.903472026061161 18.754292766614316 0 4 -1
208 59 3 -0.7 6.237491127123709 11.191965721122457 18.602758413722007 0 4 -1
1043 297 5 0.265 0.616619652835612 16.34187716439661 17.59933568587524 -2 -2 0
368 104 7 -0.7 1.5524758447433205 16.869665456821004 25.21983464035046 0 2 0
50 14 7 -0.7 2.64738797785353 17.62883220809113 13.587715281074408 3 1 0
369 104 4 0.435 2.151696269777966 17.467239735332246 24.8203354337638 0 2 0
1360 389 2 0.265 4.866182231531052 18.325728220340444 23.322575188450376 5 -3 -1
787 224 4 0.435 8.40249484684883 17.01234266722907 22.227202372943196 -1 -1 4
209 59 1 0.435 6.7308018359657105 11.597183363300303 17.885912004486933 0 4 -1
2488 708 5 0.265 3.9341275800680933 12.053428003905752 14.81538599949962 -1 -2 0
733 208 6 0 3.8705171891638344 14.794097335583213 21.844397453216768 2 2 -1
1917 547 4 0.435 5.20911160172203 13.955256128684649 24.431366667721647 1 2 1
2491 708 6 0 5.285828625924152 11.470061937347541 14.285280563478318 -1 -2 0
1940 553 6 0 7.45275296553576 14.136195210884674 16.010725739756715 3 -1 -1
1045 297 4 0.435 0.768861309301113 18.004797289938 16.719164400701565 -2 -2 0
1938 553 7 -0.7 8.076956885847357 11.937407827696637 16.773496948328713 3 -1 -1
155 43 3 -0.7 8.61114245171785 9.79481219311809 15.008556802579028 0 -1 0
2410 687 5 0.265 -0.021820951626563723 11.47787900418423 25.536918380122476 1 1 1
1297 370 3 -0.7 -0.4015678383195309 18.116841668272496 13.43801672154968 1 -1 -2
1939 553 4 0.435 8.411753368457234 11.144103135432927 16.36998656293776 3 -1 -1
1812 517 3 -0.7 8.639286440293084 11.401556311742864 20.27666776987784 2 -2 0
1811 517 2 0.265 8.214968992467073 10.710048221181085 21.48010964228024 2 -2 0
370 104 6 0 0.39968909673780106 17.183590463950296 23.09926562906962 0 2 0
1813 517 1 0.435 8.118597157438188 11.041827693245063 19.530924574559194 2 -2 0
732 208 4 0.435 2.8365948766461218 14.912848315519607 24.527970984953228 2 2 -1
1443 412 5 0.265 8.175978029779037 14.440114880596935 21.550581960115363 -3 0 1
730 208 5 0.265 3.048882336625971 13.990499227846868 22.842772683633 2 2 -1
2501 711 4 0.435 2.9056859851219388 18.688433014354928 17.16983451533225 4 2 3
1937 553 5 0.265 8.613481397763145 13.161596683869028 16.226727324729737 3 -1 -1
792 226 2 0.265 7.948032341463284 18.147342626232643 16.319100112172467 -3 -3 -2
1916 547 7 -0.7 6.0514580057483816 13.684439144592769 24.179624849942336 1 2 1
1046 297 6 0 1.608456570750381 15.436620927665112 18.292194157078598 -2 -2 0
51 14 4 0.435 2.2675638615300686 18.4796527510603 13.381169610148378 3 1 0
793 226 3 -0.7 7.061224545186652 18.39594666237726 15.239409722844572 -3 -3 -2
1445 412 4 0.435 7.027247841296109 15.01359008368315 23.086921131509992 -3 0 1
1361 389 3 -0.7 3.7112696945416115 18.403199591955172 24.204390484236196 5 -3 -1
2489 708 7 -0.7 2.790608732175667 11.372964245148339 14.35104918281571 -1 -2 0
1353 386 1 0.435 8.130149407762207 17.646238042277012 13.5729376651353 -1 2 0
52 14 6 0 4.40100837582252 16.515775401211545 14.876520481516343 3 1 0
786 224 7 -0.7 8.747777045010722 17.864774303622976 22.409961531780052 -1 -1 4
2490 708 4 0.435 2.5565870253055936 10.774836935720328 15.010458501487578 -1 -2 0
47 13 4 0.435 1.6452266759019891 16.077551225342333 13.93369394655934 1 3 -1
46 13 7 -0.7 0.7269560507977819 15.767738424924534 14.051317118525038 1 3 -1
731 208 7 -0.7 3.3023026798199626 14.157932033016449 24.230168306825828 2 2 -1
1444 412 7 -0.7 7.786310168575593 15.39063246415189 22.579272067046425 -3 0 1
785 224 5 0.265 8.522509740978883 18.616547611673383 21.207384699033103 -1 -1 4
1915 547 5 0.265 6.276587739973146 12.501535137493544 24.966166491686693 1 2 1
49 14 5 0.265 3.745907013776593 17.832953929140288 14.461624259565871 3 1 0
2413 687 6 0 -0.23335270912227296 12.890182548663716 24.94729894530191 1 1 1
2499 711 5 0.265 4.403600082691533 18.82455962690695 18.395794899149738 4 2 3
616 175 7 -0.7 1.6425121794862654 9.57888399739205 15.904225766477214 3 0 0
45 13 5 0.265 0.750458040944797 14.449676165574491 13.503111171493865 1 3 -1
372 105 7 -0.7 -0.6053858408270738 19.103905080384674 16.09085819809704 -2 -2 -2
1352 386 3 -0.7 8.315531019245073 17.171165864330945 12.77518527939064 -1 2 0
1298 370 1 0.435 -0.11101984117684027 17.278129770301557 13.756364942990702 1 -1 -2
6 2 1 0.435 5.796608458442851 9.60152461581503 19.17703956607684 2 0 -2
2500 711 7 -0.7 3.7244831998643875 19.216967367633476 17.158479750497484 4 2 3
794 226 1 0.435 6.69092854030224 19.270993160765 15.331259998824276 -3 -3 -2
373 105 4 0.435 -0.5888733039932956 18.69123623563002 15.231918279599453 -2 -2 -2
1351 386 2 0.265 7.9463266184274115 15.780564472556321 12.965405461375076 -1 2 0
48 13 6 0 -0.6342027114316409 13.77247253335518 13.628814199690618 1 3 -1
2373 676 7 -0.7 8.978069129439064 12.854310165195722 37.31975020783513 2 -3 -1
425 120 5 0.265 2.863909034686794 10.782580835307655 34.688380421560865 1 -1 -1
426 120 7 -0.7 3.0655261541303997 11.510460123151391 35.89202909973835 1 -1 -1
949 271 7 -0.7 7.193084234366888 17.894594154805983 31.347383783811043 0 0 -3
427 120 4 0.435 2.368797934518182 11.159190286308332 36.52401896817793 1 -1 -1
796 227 7 -0.7 1.1189238294598818 10.3594673626872 37.38512642897044 -2 -3 -1
920 263 7 -0.7 6.819369551720777 11.30939974066053 37.595587716654066 -1 -2 -4
948 271 5 0.265 6.80730294288717 18.876873077567087 30.38230083869575 0 0 -3
1815 518 7 -0.7 3.466526375445712 17.195580747452095 36.314885342247905 0 3 0
2372 676 5 0.265 8.7698398761165 13.985509219525728 38.13281713346687 2 -3 -1
919 263 5 0.265 6.240412766003051 10.006326522796549 37.44295055450712 -1 -2 -4
2515 715 2 0.265 1.6284930214128512 19.09255448984563 31.540146060042176 1 1 -1
2375 676 6 0 8.071451458321297 15.06132764179978 37.25266096942366 2 -3 -1
1621 462 3 -0.7 5.8792780739763675 18.104526597660605 36.28208657753083 2 0 -1
1202 343 2 0.265 5.248499665628472 14.220077069674804 35.351168710697365 0 2 4
1918 547 6 0 5.935159303236796 12.87576391212903 26.399666875621953 1 2 1
951 271 6 0 5.36832043876235 19.17735937374738 30.758142962719635 0 0 -3
921 263 4 0.435 6.2552349861250525 11.993925862580802 37.1313210343865 -1 -2 -4
1816 518 4 0.435 4.421978406977903 17.31975809842607 36.26620781734181 0 3 0
614 174 1 0.435 6.665603806986649 16.330210294890087 32.17034482622222 2 0 -4
1622 462 1 0.435 5.425986572334743 18.94496234664069 36.385406144177324 2 0 -1
1580 450 7 -0.7 1.0327503957331223 10.461350764457896 28.88139362612257 3 -2 -2
1620 462 2 0.265 6.966208828574123 18.56367749547902 35.437597879122094 2 0 -1
149 41 4 0.435 9.264068665592431 13.614274701244797 30.236712125454677 1 0 -1
613 174 3 -0.7 6.21998695794125 15.496118047270794 32.25719221691115 2 0 -4
1203 343 3 -0.7 5.215077766732289 13.05204964168642 36.1731916702674 0 2 4
2412 687 4 0.435 0.15529649072126583 11.184563938372026 27.462431978513386 1 1 1
950 271 4 0.435 8.132261616786264 17.84636202182856 31.47389249431779 0 0 -3
2374 676 4 0.435 8.160499318141694 12.320539402041344 37.2668710034889 2 -3 -1
1817 518 6 0 3.175329633227783 15.465184890414175 38.04393794671911 0 3 0
1582 450 6 0 -0.05400641725786859 11.85762611838478 30.63950552325175 3 -2 -2
1102 313 7 -0.7 2.8883102126447078 15.4732340532969 27.216974821184138 1 4 0
2184 621 3 -0.7 5.251479255417964 17.995742517687773 26.670685830204622 0 1 -5
612 174 2 0.265 4.793513719152128 15.571623693243554 32.08808071058637 2 0 -4
795 227 5 0.265 0.0025198735387900184 11.221455222153942 37.696956483436935 -2 -3 -1
2350 670 2 0.265 1.6557876180575701 15.652863941994362 33.749547772183774 0 -2 2
2351 670 3 -0.7 1.3909167776969973 15.728793317231524 35.163290951158984 0 -2 2
1104 313 6 0 1.6208208132065773 15.367613868710675 29.22160205577383 1 4 0
2516 715 3 -0.7 0.23409038805707905 19.183692362570717 31.145110895203107 1 1 -1
1814 518 5 0.265 3.134855003024856 16.985781135728175 37.69372652075276 0 3 0
798 227 6 0 0.5894017851720399 12.565752668311353 38.18863605399615 -2 -3 -1
2352 670 1 0.435 2.0682364371829665 16.26259008400416 35.61856726829163 0 -2 2
351 99 2 0.265 7.972842281475982 12.292353945645383 32.34686867437027 0 2 -4
353 99 1 0.435 7.521863481775114 13.964957015243819 31.5930402918889 0 2 -4
1204 343 1 0.435 4.32668440677339 12.723582010314995 36.07348225214156 0 2 4
2411 687 7 -0.7 -0.5698392824635901 11.410879119183262 26.85865054957249 1 1 1
2183 621 2 0.265 5.665408517762256 16.808128637702552 27.287442898105365 0 1 -5
352 99 3 -0.7 8.326493076773788 13.429249027300804 31.53952461717757 0 2 -4
1101 313 5 0.265 1.9587263367234828 14.671962019359936 27.913774264276473 1 4 0
428 120 6 0 3.0638586961116796 11.591474009074437 33.41732193194231 1 -1 -1
1579 450 5 0.265 0.9703680599269644 10.742361134222248 30.296156978035523 3 -2 -2
1103 313 4 0.435 2.3682764332597657 15.822155464744203 26.536719605610944 1 4 0
922 263 6 0 4.891195792167803 9.907766489968973 38.13342931527522 -1 -2 -4
292 82 1 0.435 -0.49269093705522243 19.22402324221454 27.811075566182318 1 0 0
2171 617 6 0 5.522305540063126 10.017239721578004 29.329904976889242 -2 3 1
2550 726 1 0.435 -0.402589840817112 15.273402625764463 35.40744092783967 0 1 -6
2185 621 1 0.435 4.590615204287063 17.73896338443816 26.041824076909183 0 1 -5
2517 715 1 0.435 0.18150228110181243 19.308737845530626 30.183861876476637 1 1 -1
1581 450 4 0.435 1.8549535360153402 10.044964959578055 28.632920169011257 3 -2 -2
800 228 3 -0.7 5.074960084743855 21.373574448218772 3.7085838312083723 1 0 -2
1525 434 6 0 4.235986639751882 19.42903781693904 6.683418464679248 3 -1 -1
1587 452 7 -0.7 3.4873336735643896 23.47789518241822 9.105100624410051 -3 3 -2
656 186 4 0.435 5.191940661173633 23.553747107215916 9.526418774450796 -2 -1 -2
1465 418 4 0.435 0.8901361046204137 26.118216500132927 11.352717801882203 1 -4 -3
1975 563 7 -0.7 6.3135863935997305 25.683077371152955 5.443072466095573 -1 0 1
1463 418 5 0.265 2.4911025861999936 26.08587528540331 12.447160736925769 1 -4 -3
671 191 3 -0.7 0.5120797370319516 27.007104189616786 9.98402580233107 -1 -2 1
2514 714 6 0 0.06472021432912256 21.998328813278658 4.836783376676197 1 2 1
1976 563 4 0.435 5.58593163900209 25.128401570232377 5.136801835981287 -1 0 1
188 53 2 0.265 2.193830684070561 29.06936907010956 7.333780592008021 0 0 0
1735 495 5 0.265 4.30637220225694 24.781763517255847 2.712914178189864 -1 -4 5
1229 351 5 0.265 5.9852351856167925 27.79615096164258 10.936098775508347 3 -2 4
672 191 1 0.435 0.8643021494273004 27.70848272341721 9.419557171021383 -1 -2 1
1523 434 7 -0.7 3.702064901684505 21.702706466110328 7.128536289336936 3 -1 -1
1736 495 7 -0.7 4.7398597923464365 24.06524367308598 3.8860383892764663 -1 -4 5
1522 434 5 0.265 4.755412798592081 20.73220204183503 7.256354938884853 3 -1 -1
1977 563 6 0 7.771098586480955 26.018421647527898 7.2665913171767444 -1 0 1
658 187 2 0.265 0.1312646807518668 26.121524093147087 4.367245793333111 -1 1 2
1738 495 6 0 2.933771388517986 24.194802225167436 2.327252664524424 -1 -4 5
655 186 7 -0.7 6.097839574105128 23.723449261390545 9.766919938777619 -2 -1 -2
1232 351 6 0 4.75615333616 27.569640772746745 10.033346639563108 3 -2 4
536 152 7 -0.7 6.114831579170013 27.884788932032905 3.995880031369376 -3 -2 4
801 228 1 0.435 4.818234202732138 20.70621506553278 3.0590454075663387 1 0 -2
704 200 3 -0.7 0.07668285626980331 28.06603255130021 0.7229358608233222 -1 -1 0
1974 563 5 0.265 6.3512884041342925 25.567776521496903 6.84498622951657 -1 0 1
583 166 2 0.265 8.285076344741686 21.83083983299402 7.494184496263461 -2 1 2
1540 438 1 0.435 0.04521020267306619 24.008974645940004 12.245961079976395 0 1 2
773 220 3 -0.7 -0.24001611559027608 20.991176267513275 10.369097351883548 4 -1 -2
877 250 6 0 3.6909009510034743 20.810891598233255 12.288759326476265 0 -2 -2
1588 452 4 0.435 3.5195639528288973 22.923520166693702 8.314828464675161 -3 3 -2
2512 714 7 -0.7 2.486569812857568 21.551223348009277 4.836358183886748 1 2 1
860 245 6 0 8.036526802974382 20.30157889998416 0.3611380885805262 0 -2 2
1737 495 4 0.435 4.781702761631104 23.1256004862822 3.7012710994982405 -1 -4 5
321 90 1 0.435 0.1498163086317421 26.37927421435848 0.4335129931436177 2 -2 1
874 250 5 0.265 2.2595791091333117 21.30949016002342 12.323182275468948 0 -2 -2
774 220 1 0.435 -0.3829194149692791 21.752051455719933 10.845761610907962 4 -1 -2
1586 452 5 0.265 2.467307553762559 24.498160434390307 8.954579954036477 -3 3 -2
654 186 5 0.265 6.265532099931397 23.061353461622463 11.015582820131078 -2 -1 -2
1391 397 4 0.435 8.881514077447022 23.85599951745161 0.2522218961907978 -1 4 4
537 152 4 0.435 6.014974403293783 27.140048283661134 4.553904114200171 -3 -2 4
538 152 6 0 8.573150734858055 27.7232416925333 4.0359954204712505 -3 -2 4
1589 452 6 0 2.6541632870565937 25.099167736332603 7.511832830010832 -3 3 -2
799 228 2 0.265 6.474297812537918 21.175064951085012 3.967165395443158 1 0 -2
657 186 6 0 7.661956966273143 22.4823063644468 10.901132000181711 -2 -1 -2
476 134 3 -0.7 4.001217140461957 19.877067556104862 2.0052496943977345 2 3 1
2513 714 4 0.435 3.046538803012184 21.6040529862159 4.105621588986044 1 2 1
1524 434 4 0.435 3.30311843571803 21.48002252288575 6.278233692178121 3 -1 -1
475 134 2 0.265 3.9093626143988693 19.983553876648156 0.6179291451796869 2 3 1