LAMMPS data file via write_data, version 29 Aug 2024, timestep = 11000000, units = real

2418 atoms
7 atom types
1689 bonds
5 bond types
960 angles
3 angle types
693 dihedrals
3 dihedral types

-0.05928799838113008 39.000407998370505 xlo xhi
0.27349087650103954 38.463619123492435 ylo yhi
0.3705404376995638 38.06767956227894 zlo zhi

Masses

1 1.008
2 15.011
3 15.999
4 1.008
5 14.011
6 15.011
7 15.999

Pair Coeffs # lj/cut/coul/long

1 0 0.4
2 0.195 3.75
3 0.185 3.02
4 0 0.4
5 0.0914 3.95
6 0.195 3.75
7 0.185 3.02

Bond Coeffs # harmonic

1 1000 1.43
2 1000 0.945
3 1000 1.54
4 1000 1.43
5 1000 0.945

Angle Coeffs # harmonic

1 55.045 108.5
2 55.0452 108.5
3 50.0772 109.47

Dihedral Coeffs # fourier

1 3 0.416953 1 0 -0.0579664 2 180 0.373453 3 0
2 3 0 1 0 0 2 180 0 3 0
3 3 0 1 0 0 2 180 0 3 0

Atoms # full

1693 488 2 0.265 9.269340745232439 9.163087312091399 1.6830816343015587 4 2 -3
796 225 5 0.265 2.4481192199695885 7.109989626590039 1.8396245755654765 -1 0 0
1708 493 2 0.265 1.114139510190675 7.31309751485836 10.846924669902101 -4 7 -1
1969 580 2 0.265 5.821971573364312 6.9697223358643345 3.5467115922019055 4 6 3
997 283 1 0.435 8.971059704516373 2.1261268844317316 11.132495733009106 -1 0 -1
1961 577 3 -0.7 2.339635466719956 4.358413753476458 4.906600276644768 -6 0 2
1917 562 1 0.435 0.9165229579508664 5.612965065798312 4.532533744593854 -1 2 -2
156 45 5 0.265 3.1500271321178297 2.5150058261274735 1.9728661492899413 2 1 2
798 225 4 0.435 4.120103128567075 7.9012324143569685 1.595540268195697 -1 0 0
995 283 2 0.265 9.556308953613366 3.3102472361677235 9.582108174758591 -1 0 -1
159 45 6 0 3.632622364846544 1.1255183155737314 1.4296984017146392 2 1 2
1960 577 2 0.265 3.4207755139224196 4.125239759341115 5.827566382547092 -6 0 2
496 141 5 0.265 9.021788516861886 5.270510546777646 6.141536541870803 -1 3 -1
1798 523 2 0.265 0.9763711797031873 2.6177284419649482 11.047496393885513 -1 1 -1
229 64 4 0.435 4.564317782493008 4.135029200649454 11.835698961049484 -1 -2 0
996 283 3 -0.7 9.231629552441916 3.0505292058942426 10.945339060581048 -1 0 -1
158 45 4 0.435 1.499563735835252 1.9445971999181275 2.525678129238789 2 1 2
157 45 7 -0.7 2.2226071779427055 2.302036510790675 3.0398849873345046 2 1 2
227 64 5 0.265 5.228403045311852 4.838820918660989 10.189119352100507 -1 -2 0
1971 580 1 0.435 6.461511049090882 8.17665420640685 2.1135882689747048 4 6 3
1834 535 2 0.265 5.1101486299115235 8.107327225500848 12.541446232169514 -2 7 4
1762 511 2 0.265 8.404496684274726 5.942443785089639 12.4077075157864 0 -1 0
675 191 7 -0.7 9.038916509801753 2.133934524395004 5.643532230612335 1 7 1
305 86 2 0.265 7.20318096667664 2.8627801508460355 3.021650445271107 1 -4 2
808 228 2 0.265 6.268879048917684 0.7025247079412984 7.215549541275278 3 -4 -4
797 225 7 -0.7 3.3380749343177514 7.855851831634488 1.0380442586776712 -1 0 0
499 141 6 0 7.526938786544856 5.339634144058377 6.461653350987058 -1 3 -1
228 64 7 -0.7 4.290507161190384 4.046718282155629 10.928447708093653 -1 -2 0
799 225 6 0 1.486443416899957 6.256801154765829 0.9885480824735092 -1 0 0
1970 580 3 -0.7 5.63844558180408 7.815564986310892 2.448581922849565 4 6 3
306 86 3 -0.7 7.275335661331101 2.6059197789423596 1.6064599841703482 1 -4 2
1962 577 1 0.435 2.422592138405116 3.707119475413139 4.218254492346988 -6 0 2
1764 511 1 0.435 9.541807612211713 4.52899532275352 11.605170013249397 0 -1 0
307 86 1 0.435 7.405812482420543 1.6585768184922065 1.516944656729351 1 -4 2
230 64 6 0 4.346131627313925 5.767989722245357 9.320317319619017 -1 -2 0
860 243 3 -0.7 0.1140511206900727 1.7750714796644536 1.3380502728679577 0 6 -4
676 191 4 0.435 9.244618780150319 2.957291969621707 5.147534207494589 1 7 1
810 228 1 0.435 7.4050811960655585 1.0412079871592228 5.682199733908277 3 -4 -4
1886 552 3 -0.7 8.727739247037148 0.4901792609431062 11.118286999910607 0 5 -3
1763 511 3 -0.7 9.658262248083194 5.397019885216011 11.990446535581091 0 -1 0
1694 488 3 -0.7 8.20390368536964 8.254205169656492 1.3154810471243494 4 2 -3
1916 562 3 -0.7 0.19692901470974644 6.2558013272226445 4.508766505117694 -1 2 -2
1799 523 3 -0.7 -0.04284361499821544 1.7396316160524539 11.567948415915565 -1 1 -1
236 66 4 0.435 0.5541608849317189 1.7935465335969691 5.973315680623239 0 1 3
497 141 7 -0.7 9.219589362175006 4.581336615657767 4.869756153749168 -1 3 -1
1612 461 2 0.265 5.509135920569016 0.7693868782738889 10.560608478134885 0 0 -5
809 228 3 -0.7 6.783536385938528 0.3468349354568517 5.981625416120222 3 -4 -4
684 193 1 0.435 6.136523497506671 3.6214780688415478 0.6486309726188829 3 4 0
1695 488 1 0.435 8.156534323815618 8.204378442114283 0.39844015917447756 4 2 -3
1740 503 1 0.435 6.353611741201836 2.378914942912502 20.19140717272117 -1 0 7
1221 349 3 -0.7 3.781666451264092 9.631140635215663 15.122678451604706 -2 -6 2
480 136 2 0.265 5.368036958742583 7.006922478175144 16.329212484815763 3 2 2
1835 535 3 -0.7 5.730991169801252 9.082888094871198 13.38601212161477 -2 7 4
1273 364 1 0.435 2.070091971649769 5.074489035273034 22.5580918808022 -5 -1 2
1616 462 3 -0.7 5.1064552585310565 4.114409682132241 13.651217034302372 3 1 -2
1218 348 3 -0.7 9.663725390222279 1.8526393943374597 23.543499252549033 8 3 3
481 136 3 -0.7 6.037659095804496 5.762702990181036 15.994269758927617 3 2 2
1615 462 2 0.265 4.331548610865781 3.149029461044847 14.33056852016764 3 1 -2
1900 557 2 0.265 8.761807797946735 7.072002839517451 24.49599070175353 -2 2 -1
1865 545 3 -0.7 8.208561988816426 5.604678172464027 17.35218291260031 1 4 4
1836 535 1 0.435 5.002728971924445 9.355186526120692 14.002358454381342 -2 7 4
482 136 1 0.435 6.857341736808086 5.7200037023081896 16.48382113867745 3 2 2
2188 653 2 0.265 2.3581126965290777 5.220686304727333 18.140709681690165 7 4 0
2023 598 2 0.265 1.3691799060348178 1.5043114370709865 16.96092688624315 -1 4 -1
1388 397 5 0.265 2.0434820941534695 7.645396857202979 22.57355962073133 -1 5 -2
1866 545 1 0.435 9.111663528888682 5.254802929740076 17.34607159566429 1 4 4
1272 364 3 -0.7 1.5826645908154777 4.331070709291758 22.244316046271948 -5 -1 2
1390 397 4 0.435 2.298335778365899 7.028140005120167 24.381455097447528 -1 5 -2
101 29 5 0.265 9.194205147293799 2.179061691042226 14.143304751391417 -1 0 1
1389 397 7 -0.7 2.4947650117219333 6.681827331804865 23.546779168436302 -1 5 -2
309 87 7 -0.7 1.0011277363820836 8.394450131565327 17.706752362430215 -3 1 3
1617 462 1 0.435 5.710848960549691 4.413037539598582 14.310928443685876 3 1 -2
2024 598 3 -0.7 1.9659902397527578 0.5850463581545866 16.03937098027746 -1 4 -1
2189 653 3 -0.7 2.1966337688331126 6.408215645064113 18.910401850113328 7 4 0
1864 545 2 0.265 8.027938736172308 6.356784825479449 18.587979320321708 1 4 4
1271 364 2 0.265 2.4097605515273037 3.194172385327328 22.52570008907483 -5 -1 2
1382 395 4 0.435 0.3717503077248308 3.9399351805366782 20.849399335948434 -5 3 2
1739 503 3 -0.7 5.7943572847465665 3.0931938494000226 19.90216008113305 -1 0 7
1738 503 2 0.265 6.062090192197424 3.1416398376103905 18.537363057054474 -1 0 7
1850 540 3 -0.7 4.525622469866077 5.624234097668557 20.610352458179868 4 0 5
310 87 4 0.435 1.2117763515230613 7.540120412297178 18.02492384745212 -3 1 3
1261 361 3 -0.7 7.151097608447012 0.6446025204400018 20.201315603710928 -1 -2 2
2190 653 1 0.435 2.682108281507095 6.261931342520114 19.720283380214788 7 4 0
1849 540 2 0.265 5.414749420810672 5.815547851826334 21.731077708234714 4 0 5
1391 397 6 0 3.250329474023534 8.601073048259872 22.296448336374926 -1 5 -2
104 29 6 0 7.812900181648609 1.7713249340237476 14.725748989513944 -1 0 1
1851 540 1 0.435 4.717574580309255 4.704412686547487 20.35235766685394 4 0 5
1220 349 2 0.265 2.4007660860967595 9.525900284222002 14.70653981671973 -2 -6 2
1217 348 2 0.265 9.132066079023987 1.0953714836291848 24.597841850211445 8 3 3
1088 309 3 -0.7 0.6347694420194367 0.669775600753469 13.857739749764194 -3 5 1
2025 598 1 0.435 1.626633987923461 0.8284273218359918 15.210716661453501 -1 4 -1
1953 574 1 0.435 2.152530976441423 9.784975919021965 17.831053271523817 0 -4 4
1089 309 1 0.435 0.3473513500414653 1.1807107958070593 13.098710282630302 -3 5 1
2173 648 2 0.265 9.230976554410434 8.449692758253704 15.222181955393998 -1 -2 -7
1222 349 1 0.435 3.7163187425944737 9.5285435052856 16.053810211883118 -2 -6 2
1149 328 5 0.265 2.519745921882416 4.600071970233056 29.64610457334221 -1 3 1
2172 647 1 0.435 4.065491235260614 1.2089087790022415 35.417026906537345 4 5 -2
784 221 3 -0.7 0.9041001197290264 7.865409798776247 25.820259899799833 -3 7 -3
1588 453 2 0.265 5.01945171532564 5.224108261622009 32.44803816167767 6 -1 1
395 111 1 0.435 4.368889907458913 3.339856816895028 36.468672100683065 0 -5 -3
1119 318 6 0 5.870481089114103 9.633832234596136 36.85750259061079 -1 5 -6
99 28 3 -0.7 7.351875692788739 8.318217494881123 31.558195780875145 -3 3 -5
100 28 1 0.435 7.810940521757966 9.140804104920806 31.524427996794117 -3 3 -5
186 53 7 -0.7 9.43715921086266 2.0821085024789165 33.948254632523486 -1 -1 1
393 111 2 0.265 2.483160307690647 3.578962999568158 36.053378934160634 0 -5 -3
1150 328 7 -0.7 1.988685478455991 5.42041753073361 30.71667964802108 -1 3 1
1166 333 2 0.265 2.5569345952732565 7.797057642897292 35.290630543828684 4 2 -2
1590 453 1 0.435 3.13775435912116 5.922583724779918 31.95428683915863 6 -1 1
394 111 3 -0.7 3.740326487715769 2.844282107022075 35.96623088372962 0 -5 -3
2347 706 2 0.265 9.435541977861547 1.9832720260671468 30.203554329219262 2 0 0
266 75 2 0.265 5.163966135649467 8.626871238113571 27.612677405084963 0 1 0
1684 485 2 0.265 8.026662234711665 5.109428187020989 29.5971609843291 1 -1 0
1686 485 1 0.435 7.818577862607734 6.874720209182975 30.37894248086396 1 -1 0
683 193 3 -0.7 5.606495751518337 3.9996654382727153 37.639719932980896 3 4 -1
1152 328 6 0 2.0665415005366072 5.106487722443298 28.289281777974654 -1 3 1
1685 485 3 -0.7 8.540465974727532 6.340806269900179 30.051276627380506 1 -1 0
1168 333 1 0.435 2.5357125751246605 8.402024313395243 37.0422657082088 4 2 -2
1151 328 4 0.435 1.0361436664963304 5.235412520469617 30.759681763007336 -1 3 1
988 280 1 0.435 8.47756443915298 6.959416898170814 32.46687405478731 -4 -2 0
987 280 3 -0.7 9.303194974891248 6.834763534434019 32.9069331362207 -4 -2 0
1714 495 2 0.265 0.0014326535433361876 0.8194728549250304 31.918633047585743 1 3 1
1589 453 3 -0.7 3.9284572367659956 6.178832061850645 32.43292106239467 6 -1 1
1116 318 5 0.265 7.035107032111444 9.738910494363887 35.8068685999865 -1 5 -6
98 28 2 0.265 6.2056862595106566 8.607249459563562 32.363283700080515 -3 3 -5
621 177 5 0.265 1.6626817332980328 9.041496546312764 31.927583572533 3 0 4
624 177 6 0 2.295399787129808 8.916817128455563 30.539720216709025 3 0 4
1167 333 3 -0.7 2.389145032891751 8.830757566642655 36.23604578880388 4 2 -2
267 75 3 -0.7 6.49069058470816 9.125811754037922 27.246382519370435 0 1 0
682 193 2 0.265 6.027252597889295 5.316487375135451 37.2012695393138 3 4 -1
188 53 6 0 7.400809992427017 1.4053406560694728 35.04505923005715 -1 -1 1
185 53 5 0.265 8.61899993068194 0.9006493587465109 34.235025370938615 -1 -1 1
986 280 2 0.265 9.171505147521136 5.619690623672275 33.57175261821102 -4 -2 0
783 221 2 0.265 0.0917212689928184 7.941685616405267 26.97183289250453 -3 7 -3
1577 449 6 0 0.16724925843705152 5.191323600467765 33.563092018475245 3 -6 -1
1117 318 7 -0.7 8.110185141073275 8.781814793906955 36.035072304959385 -1 5 -6
1118 318 4 0.435 8.669234653513243 8.69233772847928 35.28378720484605 -1 5 -6
447 126 1 0.435 9.606025271643807 7.1035799297814695 28.9841306220178 -3 1 4
785 221 1 0.435 0.857109665889783 8.781093228213718 25.50672148936349 -3 7 -3
920 261 3 -0.7 7.107660172481744 16.518060763834836 9.661275682571965 1 -2 4
544 154 1 0.435 7.481589158517966 16.9330991601872 11.060631688914333 3 3 0
573 162 4 0.435 5.191916151082427 13.83431443924434 9.215056855483315 4 -2 2
2278 683 2 0.265 9.387594222724593 13.760252722081333 12.679292118296063 -2 7 1
735 207 4 0.435 7.456859595255619 16.999438629423267 4.137532862658463 1 -1 2
1124 320 2 0.265 4.855045763027932 15.043190651531074 5.199179013140129 -3 6 0
1565 446 6 0 8.631457114479968 14.22129318139176 6.079634179815779 0 -3 -5
733 207 5 0.265 6.50562618515041 18.630448142589124 4.059647746162566 1 -1 2
751 212 7 -0.7 1.116826336224355 12.514138779481703 8.447570529419181 1 5 1
1125 320 3 -0.7 5.3483429279277495 15.059847096989667 3.845983770129772 -3 6 0
574 162 6 0 2.992128425396636 15.934632933152649 10.06648018722801 4 -2 2
2122 631 2 0.265 2.5901647216921844 11.362791234153976 0.7219565418848108 3 -4 6
1126 320 1 0.435 5.915716983235382 15.810297130046367 3.596939511901956 -3 6 0
543 154 3 -0.7 7.567220203646029 16.999712401704596 12.024102710305806 3 3 0
20 6 7 -0.7 1.1261748288162792 16.819930650758142 4.014089713555325 4 -2 -2
736 207 6 0 5.518190230708186 19.135265034518607 3.008306647440395 1 -1 2
1936 569 2 0.265 6.3187669496937735 11.014577546410726 10.199109691623345 -1 -2 1
19 6 5 0.265 2.159813731658878 17.18563654338626 3.1247577616021944 4 -2 -2
1938 569 1 0.435 6.774463837689903 11.559366034990823 8.453234116747085 -1 -2 1
1778 516 3 -0.7 0.819785306286458 12.967191194297145 5.691415401862417 3 3 1
921 261 1 0.435 6.285327159226652 16.072596366192034 9.571971158546415 1 -2 4
2263 678 2 0.265 2.734595901083461 19.365936324993413 6.5966139797426155 -3 0 -2
22 6 6 0 1.7263001516782206 18.539576483574262 2.481393251912209 4 -2 -2
750 212 5 0.265 0.757745354926949 11.171510405845986 8.808204550757171 1 5 1
572 162 7 -0.7 4.978442740046288 14.797719200785863 9.247065595806571 4 -2 2
752 212 4 0.435 0.8230083878336937 12.560782262770356 7.552150026359125 1 5 1
1937 569 3 -0.7 6.181720043729482 11.930336326168614 9.096758967482659 -1 -2 1
788 222 1 0.435 5.046320657964398 13.700837038943579 2.9519279812151717 1 2 -1
542 154 2 0.265 6.52528086675507 16.293342275009675 12.680028989215177 3 3 0
787 222 3 -0.7 5.094526702364754 12.99115701020214 2.295040558050997 1 2 -1
571 162 5 0.265 3.539705938814485 14.88576451468279 9.105482468680007 4 -2 2
734 207 7 -0.7 6.797469716877943 17.32346579894209 3.551545805530975 1 -1 2
2124 631 1 0.435 3.6795792375819443 12.912197253794474 1.1540261715092093 3 -4 6
1562 446 5 0.265 9.414835655885168 14.892990728587758 4.933088693267825 0 -3 -5
919 261 2 0.265 7.5062687371043015 16.791353737708892 8.309757011150735 1 -2 4
1779 516 1 0.435 1.3031961190728873 13.755557638989895 5.901860834214851 3 3 1
2211 660 1 0.435 1.5270118804787507 15.791988754460624 5.5004325265377165 2 -2 0
753 212 6 0 1.8841116366378319 10.276506772027364 8.16029089310028 1 5 1
1563 446 7 -0.7 9.012076539842866 16.264484504488976 4.848007343448445 0 -3 -5
786 222 2 0.265 6.474228066015804 12.740301231462714 2.0800655422247796 1 2 -1
1777 516 2 0.265 1.6658787766734597 12.117879351264072 4.844082999824447 3 3 1
2210 660 3 -0.7 1.5102551079093376 15.463580821008389 6.413781425246122 2 -2 0
21 6 4 0.435 0.3570670692143029 16.69321679589213 3.4278710346259076 4 -2 -2
2209 660 2 0.265 0.28492509882103983 15.762575773476533 7.092163223427251 2 -2 0
1288 368 1 0.435 8.837991191135758 10.64784507056862 7.48416298107327 2 2 -3
1287 368 3 -0.7 7.991907556756063 10.968083796408838 7.397774697380155 2 2 -3
1286 368 2 0.265 7.23266490695679 10.02178094988375 6.682390245727161 2 2 -3
511 145 2 0.265 4.418253658721877 19.224476136140954 10.471369279387234 1 4 1
849 239 1 0.435 7.739093548447371 18.385062191689236 12.880443133011557 2 3 0
2123 631 3 -0.7 3.2007021792834873 12.636531357979552 0.3753001903782482 3 -4 6
1564 446 4 0.435 9.649967042428912 16.72239987262402 5.425321573331999 0 -3 -5
1065 302 6 0 1.6536870629182405 14.18787095470613 13.36422964593568 -1 -2 -1
1477 421 4 0.435 6.746135561693456 10.342579362974957 13.805123946316684 2 -2 -1
388 109 6 0 5.255014937122974 13.528075986137635 21.789125815751376 -2 7 0
1729 500 2 0.265 8.96059839331056 13.625510809312207 23.02959113218945 3 0 -3
2137 636 2 0.265 3.6167494775293725 17.427977215800052 22.12546707346221 6 5 0
284 80 7 -0.7 8.176866768733454 17.615510622028104 18.345130582689542 2 7 2
715 202 3 -0.7 3.5118470299106557 14.66403905083162 17.677377706828118 2 -1 -4
1063 302 7 -0.7 1.7281143640905257 15.084614243047753 15.668752673036566 -1 -2 -1
1423 406 5 0.265 1.7629237941663656 18.548758675184814 14.894488430843252 -1 2 -5
133 37 4 0.435 9.068712429285323 13.611743799178523 15.767816441869176 -1 -2 -2
1592 454 3 -0.7 5.280301196983507 15.609650976614002 25.04628032315473 0 -1 1
915 259 6 0 0.5446414640489453 13.637194975567446 21.332147355474604 -2 -4 2
714 202 2 0.265 3.2328222410415903 13.959269189708133 18.904608754404443 2 -1 -4
2138 636 3 -0.7 3.499666905828978 16.457400399079003 23.18141598730632 6 5 0
1690 487 2 0.265 1.9517287251152644 11.451365389739053 25.42557518731928 -3 -1 -1
1062 302 5 0.265 2.023892744672463 13.959892241352815 14.847324281667081 -1 -2 -1
1593 454 1 0.435 4.699692022274531 15.973744526220036 24.38277814257665 0 -1 1
387 109 4 0.435 5.2288542262873055 13.879501788433792 24.392608573572367 -2 7 0
132 37 7 -0.7 9.288636904608254 13.585704536846917 16.720695861025515 -1 -2 -2
716 202 1 0.435 4.436890744573269 14.782447287010621 17.475432145515967 2 -1 -4
816 230 4 0.435 5.605989024661035 11.96191780413371 25.192810322717055 5 0 0
2139 636 1 0.435 2.6378569028559187 16.065328499627924 23.08029978311017 6 5 0
1064 302 4 0.435 2.300447931148867 14.932078072947187 16.425025595659857 -1 -2 -1
913 259 7 -0.7 1.3082547601574277 15.234333073791644 23.046538140609062 -2 -4 2
914 259 4 0.435 0.9472336347526766 14.97355985962524 23.900217121799372 -2 -4 2
1426 406 6 0 2.6879614093130586 19.212055553151142 13.857999301507336 -1 2 -5
1591 454 2 0.265 6.321829466826916 16.536384754329575 25.382164121912194 0 -1 1
1665 478 1 0.435 7.021235891702267 15.552073904923866 17.575669444172927 0 7 1
1951 574 2 0.265 3.815102106858631 9.943021645588251 18.725261148595436 0 -4 4
540 153 3 -0.7 8.861350549991547 11.714472928519509 18.56259544559621 0 6 0
1711 494 2 0.265 9.40182167596295 18.288619466920398 24.510835083114557 2 6 3
680 192 4 0.435 7.8012341762707615 19.28446062276779 15.446534979539623 1 -4 -3
1476 421 7 -0.7 7.105362252946607 11.203826416089727 14.041347369518112 2 -2 -1
1478 421 6 0 5.679661471862097 13.149311723021567 14.449672007856766 2 -2 -1
912 259 5 0.265 0.23567930803626347 14.911694683609728 22.168451619320386 -2 -4 2
286 80 6 0 8.023605900347544 16.784532330812016 20.498266924952873 2 7 2
1663 478 2 0.265 5.682385405191529 16.493717545488874 16.493960427541392 0 7 1
1664 478 3 -0.7 6.045637479263601 15.526287827940756 17.487309192779527 0 7 1
386 109 7 -0.7 4.967685537239777 13.025268392951169 24.037188716915978 -2 7 0
1475 421 5 0.265 6.187191941398527 11.760729017019699 15.00279105314399 2 -2 -1
385 109 5 0.265 4.206147574215826 13.381314863666898 22.911037966438727 -2 7 0
1952 574 3 -0.7 3.041229256822813 10.066598519887357 17.549342257984755 0 -4 4
539 153 2 0.265 7.84698696020016 10.846575727216072 18.190322914562934 0 6 0
2280 683 1 0.435 8.26670434864476 12.697775220791414 13.805132850052797 -2 7 1
285 80 4 0.435 7.966979545167444 18.368631304007987 17.79220935022552 2 7 2
1713 494 1 0.435 9.01245517975242 16.807269903998918 23.381147195112742 2 6 3
283 80 5 0.265 8.242807058057219 18.070503641060114 19.674885722190027 2 7 2
541 153 1 0.435 9.190042495984795 12.341233539746703 17.90203658512366 0 6 0
848 239 3 -0.7 7.930040759827011 19.173963903458702 13.380049249317349 2 3 0
1691 487 3 -0.7 1.0453393479268724 10.3830827102293 25.132142574027938 -3 -1 -1
2279 683 3 -0.7 8.837548102373358 13.430558687902668 13.92224123781346 -2 7 1
814 230 5 0.265 7.314380602647961 11.220385655365218 25.186584005496947 5 0 0
1692 487 1 0.435 0.23444681060993272 10.776869084187068 24.77326522156614 -3 -1 -1
1730 500 3 -0.7 9.321194123955978 14.973939614671513 23.327401476641267 3 0 -3
1712 494 3 -0.7 9.164825715382387 17.74632987561825 23.226954248790566 2 6 3
1066 303 2 0.265 8.973163033860244 15.451776280527074 28.11665212255805 4 0 -2
1921 564 2 0.265 6.291752291079854 14.46725977004551 32.92326014633912 -4 -3 3
1914 561 1 0.435 3.980907218314953 11.27065326863306 31.355560635509843 -2 -3 -2
1521 434 3 -0.7 0.6228351483238234 15.739273744792005 37.88174891060105 3 -1 0
1522 434 1 0.435 1.485446497153002 15.837682801120913 37.53727693184808 3 -1 0
968 275 2 0.265 4.03613083054569 12.47489187082809 34.697462806301075 -1 -6 -2
566 160 6 0 1.9512269481059108 17.639431353148574 33.967543657568854 2 3 -1
564 160 7 -0.7 3.771137993909319 16.0356788771519 33.85878830142423 2 3 -1
469 132 6 0 3.5179755749510346 14.00959931853938 27.34738179459499 3 1 -1
468 132 4 0.435 1.311116722291639 12.863234960760492 28.40271650064184 3 1 -1
1977 582 1 0.435 6.4196650411543805 13.357674577551995 35.81247602783881 -2 -2 -2
79 22 6 0 5.764185445477656 18.363308618175623 29.400222659859317 1 1 -4
1860 543 1 0.435 0.32779683483321587 14.094554374226757 26.357296329659334 -2 5 0
970 275 1 0.435 4.191285753731742 12.721343594868813 36.61980319791871 -1 -6 -2
563 160 5 0.265 3.411246446678892 17.385028359747064 33.55137623948538 2 3 -1
1206 345 5 0.265 8.368317068519545 19.13067341258494 36.765693324293736 -1 -2 0
817 230 6 0 8.42198267484263 11.764573154538052 26.063802517888906 5 0 0
1923 564 1 0.435 5.067539952579676 13.89355449945336 31.745364355393125 -4 -3 3
623 177 4 0.435 1.567675741116535 10.487387827731036 33.241239844171844 3 0 4
1976 582 3 -0.7 7.374225819234361 13.291170639343804 35.67878616262922 -2 -2 -2
2243 671 3 -0.7 8.96088124351021 18.24497970138339 33.40899104765846 4 2 1
475 134 1 0.435 9.049230816142677 10.250950747124019 33.04953759828392 -4 4 -1
2085 618 1 0.435 8.646838698801115 19.032222149573837 27.648474188101307 -2 3 -1
473 134 2 0.265 8.914548009587975 12.10051934055159 32.17394802174568 -4 4 -1
466 132 5 0.265 2.227666953774422 14.578091991367689 27.97404087214915 3 1 -1
1056 300 2 0.265 -0.013650378657330701 10.91234108358675 35.89619680968333 3 -2 2
1058 300 1 0.435 1.7303957987133158 10.28542277804709 35.43373265052054 3 -2 2
115 32 6 0 0.6547418526836503 13.489612425003003 32.5755816764987 5 -4 -2
1922 564 3 -0.7 5.27866524303528 14.775021333089622 32.00300688912347 -4 -3 3
112 32 5 0.265 1.3713548135834515 13.646799172532697 31.204864209168864 5 -4 -2
969 275 3 -0.7 4.759624188296446 12.845151881570878 35.861542808008494 -1 -6 -2
565 160 4 0.435 4.293875588195301 15.801679959985847 33.096201987839066 2 3 -1
2084 618 3 -0.7 9.56420955774783 18.74404246620001 27.82766650047305 -2 3 -1
2390 720 3 -0.7 3.0433180291146025 15.887438407026028 36.696804087646086 1 -1 -2
1208 345 4 0.435 9.366620834743152 19.234310232268406 35.029180025941216 -1 -2 0
1057 300 3 -0.7 1.0756348643575004 10.821679996519208 34.93760772903849 3 -2 2
1209 345 6 0 7.912328360067994 17.70192251243904 36.373477680974815 -1 -2 0
2391 720 1 0.435 3.4326723709144007 15.548740149525154 35.85629315829921 1 -1 -2
1975 582 2 0.265 8.038853989954324 14.140184731547647 36.62304455316132 -2 -2 -2
2242 671 2 0.265 8.882612166904591 18.416840079796913 32.01132660841243 4 2 1
1913 561 3 -0.7 4.496118558840577 12.08217275588213 31.297244683663646 -2 -3 -2
114 32 4 0.435 1.3412333503738199 11.702818131024323 31.196708392831184 5 -4 -2
622 177 7 -0.7 1.8163650280751489 10.39620295310477 32.3182039812867 3 0 4
474 134 3 -0.7 8.654649051471537 10.706253481090053 32.31168760036678 -4 4 -1
467 132 7 -0.7 1.2483736739101876 13.54214485249718 27.724314246694036 3 1 -1
113 32 7 -0.7 1.1808549318591297 12.396394345265913 30.550009023681667 5 -4 -2
815 230 7 -0.7 6.039702802946363 11.379826277245028 25.813439045470883 5 0 0
1912 561 2 0.265 5.394189752881971 11.929416666741018 30.194935640684772 -2 -3 -2
2244 671 1 0.435 9.516555475001436 17.493985724006595 33.65092192923616 4 2 1
2389 720 2 0.265 4.182076670477272 16.175873731785202 37.47904295410852 1 -1 -2
1520 434 2 0.265 0.4473738652761001 14.355857101796321 37.67237423618364 3 -1 0
268 75 1 0.435 6.360186935036536 10.010605163867302 26.994256525347684 0 1 0
933 265 4 0.435 6.618667302848151 23.356938970311607 1.8339868061226348 -2 2 1
398 112 1 0.435 1.9279740171699182 24.00186002306033 5.405433553297703 1 -3 -5
519 147 1 0.435 4.323627776703405 28.101567144310124 0.6231991828316139 -1 3 0
854 241 3 -0.7 7.714030487008268 24.412894495077143 4.687024129106455 0 2 -2
696 197 5 0.265 7.699835874652508 21.977923405538846 10.320446929700518 -1 -2 8
1909 560 2 0.265 7.108240233690198 21.409318864280046 6.422107022448247 -3 -4 -2
698 197 4 0.435 6.887449414795893 22.599488209386923 8.637660633788355 -1 -2 8
1344 384 6 0 1.7936648451497372 26.598329064101748 9.161036232969016 -1 -5 2
1341 384 5 0.265 1.6125553651801672 26.179175528454426 7.65327353042575 -1 -5 2
2164 645 2 0.265 4.215068962349728 23.481122139842096 7.198796491548542 1 2 5
1789 520 2 0.265 3.2088850286410087 26.53064294912704 4.108008815733799 4 -1 4
2165 645 3 -0.7 3.0835774774734714 22.84102310148046 6.559484560632324 1 2 5
697 197 7 -0.7 6.604412469189339 22.414031994304533 9.54317727904362 -1 -2 8
1910 560 3 -0.7 7.710154373217078 22.547463738524527 6.998134896618611 -3 -4 -2
1491 425 1 0.435 9.049804214393216 27.49773341277243 10.506044720654577 9 -1 1
2166 645 1 0.435 3.271888198792706 21.94178643592821 6.612445031454936 1 2 5
66 19 3 -0.7 4.197133529310325 22.662061232121662 10.725262019370067 8 5 4
853 241 2 0.265 7.186250896393071 25.746343589302146 4.57716832519531 0 2 -2
1048 298 5 0.265 4.191688596135305 23.871838352351894 1.8474289539650894 3 0 -1
932 265 7 -0.7 7.53053301618308 23.41477813271332 2.1942842564753304 -2 2 1
67 19 1 0.435 5.0505506737362715 22.74086558212603 10.295908857551431 8 5 4
512 145 3 -0.7 3.565728385139573 20.150839995495634 9.780690986372536 1 4 1
1790 520 3 -0.7 3.0255157276884157 27.738521002336515 3.3879793673596645 4 -1 4
1490 425 3 -0.7 9.067707363804248 28.10780486448134 11.215008328379522 9 -1 1
931 265 5 0.265 8.456349931003906 22.748100371472336 1.3289079048967558 -2 2 1
2359 710 2 0.265 8.238310376012118 27.30895016201812 7.660217192905144 1 -1 -2
65 19 2 0.265 4.451737520840525 22.8104710110289 12.101143462049222 8 5 4
1791 520 1 0.435 2.0972062917157173 27.730874623356392 3.0957517305324544 4 -1 4
2300 690 3 -0.7 0.24893056562405552 27.21000601375059 2.3464595282647815 2 -1 6
2264 678 3 -0.7 3.7284548578794503 20.102672854658348 7.296858504506522 -3 0 -2
2265 678 1 0.435 3.4677858569584434 20.078021773927173 8.221454374339258 -3 0 -2
699 197 6 0 7.903070991840717 22.701000210092197 11.665047199283249 -1 -2 8
1051 298 6 0 3.6399016312436783 22.795322783934125 2.8349598461668077 3 0 -1
2022 597 1 0.435 4.483910544681218 28.32413624201659 2.7370474917189695 -3 6 2
513 145 1 0.435 3.9024000467134274 21.018868125755 10.068967455366677 1 4 1
2360 710 3 -0.7 9.357356526570143 27.293107128469845 8.595422223428837 1 -1 -2
1049 298 7 -0.7 5.185069184695008 23.357912570036106 0.9462174060023171 3 0 -1
855 241 1 0.435 7.79256718844874 24.135657652567705 3.7739056452792337 0 2 -2
1911 560 1 0.435 7.934299447339855 23.203582326011297 6.378152280916662 -3 -4 -2
397 112 3 -0.7 1.1024226633938747 24.366379012029622 5.045524220458794 1 -3 -5
2301 690 1 0.435 0.3203644892331012 27.599204182427506 1.479091541267212 2 -1 6
1343 384 4 0.435 0.3583752897993226 24.918622740343494 6.813083606402511 -1 -5 2
47 13 6 0 0.6488732883171873 24.72366960385248 11.968329651307513 1 -4 -2
396 112 2 0.265 0.09064918740612046 23.370811497176387 4.770605284955712 1 -3 -5
1342 384 7 -0.7 0.28967618763436076 25.661370124100195 7.377289123712247 -1 -5 2
2021 597 3 -0.7 5.154903626704895 28.60968973644162 2.093623146130994 -3 6 2
934 265 6 0 9.67193320700792 22.43322781006598 2.2682772498738335 -2 2 1
847 239 2 0.265 9.211301674921499 19.591899137935346 12.877364385258781 2 3 0
2418 729 1 0.435 4.853858271437038 25.29892779217055 24.10591355229377 -1 -3 2
2417 729 3 -0.7 4.617734275533667 25.410694544556048 24.99690433734903 -1 -3 2
1843 538 2 0.265 4.058568678189229 19.896196468930615 19.310432088453958 -1 1 0
1844 538 3 -0.7 4.575754328158487 20.55733641573896 20.514939294615104 -1 1 0
2285 685 3 -0.7 7.565962702662477 25.472827511187997 14.99896877984199 2 1 1
1147 327 3 -0.7 7.79320821860207 27.21621873677404 19.685378069705838 2 7 1
2151 640 1 0.435 7.9970988128843175 24.744399938239997 21.850617830357642 0 2 -1
1146 327 2 0.265 9.192281082431842 27.053693953237023 19.687627996805833 2 7 1
2381 717 3 -0.7 5.444661187739838 24.531064618850984 16.435071430020205 1 -1 2
1339 383 4 0.435 2.367745551294618 25.705332210672736 16.023750808288234 -1 1 -6
1606 459 2 0.265 7.876568815757225 28.247455573578794 23.470431196860034 6 -1 3
2133 634 1 0.435 0.8067694936091936 19.9695851679721 17.014135628449125 6 -3 -6
219 61 6 0 8.736757361056261 21.583036899994116 20.043832752376822 -1 1 -4
593 168 4 0.435 0.5153968586314558 24.49260503412212 20.414256408146034 1 2 -3
2286 685 1 0.435 6.851429827890393 25.63336828812528 15.636660714977294 2 1 1
2132 634 3 -0.7 0.8061131651552648 20.207543466803557 17.959640376166544 6 -3 -6
2380 717 2 0.265 5.887458394090934 24.428497120895855 17.804963063135563 1 -1 2
2155 642 2 0.265 0.6251219511739918 28.09099705911977 15.900944354727711 1 -1 -2
1340 383 6 0 2.4117152360728964 22.497571364382857 16.16169414968617 -1 1 -6
681 192 6 0 5.816570576807305 20.744120478207737 16.26459389056196 1 -4 -3
1230 351 6 0 3.3041806073636897 28.175270784563285 20.891258125798817 2 -1 4
1228 351 7 -0.7 4.055311086446366 28.063083175181468 23.212004174825193 2 -1 4
1229 351 4 0.435 4.924035638481077 28.28328570629956 23.058422849121747 2 -1 4
678 192 5 0.265 7.324553340973583 20.870112770610476 16.393099388625465 1 -4 -3
1227 351 5 0.265 3.4434468672516725 27.322280773710936 22.158308050319906 2 -1 4
2382 717 1 0.435 4.511565839692952 24.769613627558982 16.45916976963154 1 -1 2
1809 526 1 0.435 1.7215275838696278 20.23216146848847 21.483673997477084 3 6 2
2156 642 3 -0.7 1.2069397950563396 26.933442316626557 15.372674055291863 1 -1 -2