LAMMPS data file via write_data, version 29 Aug 2024, timestep = 11000000, units = real

2638 atoms
7 atom types
1909 bonds
5 bond types
1180 angles
3 angle types
1353 dihedrals
3 dihedral types

-0.8259993166016741 39.767119316613986 xlo xhi
-0.47615150610883106 39.21326150608948 ylo yhi
-0.3694249535814045 38.807644953577835 zlo zhi

Masses

1 1.008
2 15.011
3 15.999
4 1.008
5 14.011
6 15.011
7 15.999

Pair Coeffs # lj/cut/coul/long

1 0 0.4
2 0.195 3.75
3 0.185 3.02
4 0 0.4
5 0.0914 3.95
6 0.195 3.75
7 0.185 3.02

Bond Coeffs # harmonic

1 1000 1.43
2 1000 0.945
3 1000 1.54
4 1000 1.43
5 1000 0.945

Angle Coeffs # harmonic

1 55.045 108.5
2 55.0452 108.5
3 50.0772 109.47

Dihedral Coeffs # fourier

1 3 0.416953 1 0 -0.0579664 2 180 0.373453 3 0
2 3 0 1 0 0 2 180 0 3 0
3 3 0 1 0 0 2 180 0 3 0

Atoms # full

1201 343 1 0.435 0.51125784757061 1.5462927149928394 10.61396499603818 2 2 1
922 263 4 0.435 4.247696147617194 6.566264090529848 3.377671378681105 3 -1 0
1761 505 2 0.265 9.073897246533926 6.543029611568695 4.065981826485919 -2 1 3
1399 401 2 0.265 7.144084648587706 7.16898305366567 7.697629442362524 3 -3 1
2556 709 7 -0.7 2.585131308625643 2.759555765503466 0.8774075458314783 0 -2 6
1837 526 5 0.265 6.953747083504764 2.3088611095213896 5.77405593789107 0 2 -1
1203 344 7 -0.7 1.5976823872353827 9.25281280480585 5.524686122695984 -3 2 2
2054 583 6 0 1.8332911689406242 8.062608806029761 1.7321864006581373 -1 3 -5
726 208 6 0 7.364443544759906 3.0838532108519376 10.955312947862456 0 2 0
1840 526 6 0 6.808142920004046 2.4772835188885503 7.324585539425706 0 2 -1
2051 583 5 0.265 3.134208850653122 8.66800430538194 2.265450888287058 -1 3 -5
1839 526 4 0.435 7.8689409849419345 4.015166209980763 5.283679471255999 0 2 -1
1200 343 3 -0.7 0.8657448916816972 1.1288358869921489 11.382935790187078 2 2 1
1904 544 1 0.435 2.8789492663069534 4.186209276966818 -0.1916443848200001 4 4 3
1202 344 5 0.265 1.850360669830672 9.067559083997056 6.939662350613146 -3 2 2
646 186 2 0.265 3.6671875906430156 3.5516227239209117 10.885564797701608 -2 0 -1
582 168 1 0.435 9.276856102876419 2.3280599878625026 4.235806716423481 1 -3 -1
1061 303 3 -0.7 2.251867697294967 4.131097946424962 3.1431026992229114 2 3 -1
1401 401 1 0.435 6.620498949632884 8.411852387870404 6.413446407407362 3 -3 1
1400 401 3 -0.7 7.475021892293295 7.9622335844679615 6.561806048768587 3 -3 1
665 191 1 0.435 -0.36660536480740946 4.913034221489617 9.38281838112789 5 0 -1
921 263 7 -0.7 4.446153881552977 5.649817474407594 3.1146337269882056 3 -1 0
877 250 6 0 3.6783766635901722 1.357261628304861 4.195995005193618 -1 -2 2
2555 709 5 0.265 1.4337754114903816 1.9875523345976331 0.4360824570972476 0 -2 6
2588 717 7 -0.7 4.459888330161958 8.4394591373886 12.382652701975033 -3 -3 -1
2053 583 4 0.435 2.684378716601195 8.452907483508966 4.194501212703065 -1 3 -5
923 263 6 0 6.282041766003983 4.203149669247852 2.2414162842843526 3 -1 0
2446 681 6 0 6.527894736978878 8.753153422712789 -0.3491132713840397 0 -2 -2
1205 344 6 0 2.785107123795194 7.826160840415664 6.956552559706882 -3 2 2
1083 309 6 0 8.226378224818506 1.253706450707534 0.5250285146557213 0 -1 -1
1453 417 5 0.265 0.008983066257515548 1.6625331300396438 7.654790575096245 1 1 -4
1456 417 6 0 1.5072162099604647 1.9553887850695046 7.5124190795793435 1 1 -4
1838 526 7 -0.7 8.002673463743776 3.0884816311443744 5.209004650100734 0 2 -1
1062 303 1 0.435 3.1651736374474466 4.453573437693828 3.2672164836311093 2 3 -1
1060 303 2 0.265 1.488521648426227 4.715276938423154 4.175029065422494 2 3 -1
2052 583 7 -0.7 3.33826258643351 8.123197241584803 3.5886755604485505 -1 3 -5
920 263 5 0.265 5.856990995368742 5.486870143405387 3.0121172009137203 3 -1 0
874 250 5 0.265 3.4657469611307326 0.13065205624577136 3.3138335542744706 -1 -2 2
1454 417 7 -0.7 -0.4013377419694582 1.963734144241311 8.999830400591879 1 1 -4
2557 709 4 0.435 2.4375091419771695 3.2436017136467328 1.6765952145399368 0 -2 6
1763 505 1 0.435 8.240410295042762 6.825687967547787 5.783656170406515 -2 1 3
723 208 5 0.265 8.116173237284213 4.3917253660224915 10.58977454991455 0 2 0
648 186 1 0.435 2.926128394785714 1.9303425394267495 11.66744582016372 -2 0 -1
647 186 3 -0.7 3.761256932283965 2.36387226835517 11.714119038878204 -2 0 -1
2587 717 5 0.265 3.0560364113851137 8.349465919468152 12.151652674536413 -3 -3 -1
664 191 3 -0.7 0.11118096145565637 5.257237212144346 8.63289317225987 5 0 -1
1199 343 2 0.265 1.4667726686590155 -0.16158235253799624 11.12089074423024 2 2 1
1762 505 3 -0.7 8.535385493703592 6.052177531255732 5.286286055748488 -2 1 3
663 191 2 0.265 -0.8150984187927648 5.730188564515551 7.6404174230118524 5 0 -1
2589 717 4 0.435 4.63201098587558 7.553736272346885 12.671655170022401 -3 -3 -1
1043 298 2 0.265 5.55897195317138 2.708699243191532 16.69442160116753 -6 -2 -4
975 279 5 0.265 1.5459076510763863 5.6560393765449 14.832053782325668 3 2 4
1102 315 1 0.435 5.039687921428715 2.057816578706608 22.2690162594057 1 3 1
1940 555 5 0.265 0.1667563436265197 5.193914267168666 20.308446792657858 2 0 -2
636 183 7 -0.7 4.667196681696228 7.930874181059666 19.348896791731498 -3 -5 -2
2416 674 7 -0.7 7.949657945298576 3.5943407491256183 22.541033277617917 1 -1 1
1607 461 2 0.265 5.8966394033823875 6.8774785108147265 22.50134034001508 0 -1 4
2415 674 5 0.265 8.299897816001234 4.005706461337274 21.21413637693558 1 -1 1
1608 461 3 -0.7 5.187533565773638 6.051524834779861 21.5836178227711 0 -1 4
674 194 2 0.265 1.1810331796467635 1.4948593600899798 14.958936963861207 0 -2 -2
978 279 6 0 1.7294727043632423 6.937150820098246 15.612646713452735 3 2 4
265 78 2 0.265 8.186679918691716 0.1779157618503907 23.85343286811804 3 -1 -2
637 183 4 0.435 4.9551782999679395 8.82312704666958 19.493903580920243 -3 -5 -2
2417 674 4 0.435 7.104062170352198 3.0888233847935367 22.445257561296327 1 -1 1
1044 298 3 -0.7 4.192632328900388 2.7361554282827005 16.239989427855736 -6 -2 -4
746 214 7 -0.7 1.9522011393975505 0.22591324596068907 17.90395384263206 1 0 -3
519 150 6 0 7.780791930897161 8.41203153085332 25.47896582049242 2 -3 0
1724 494 6 0 2.664004483862217 3.817910284717196 24.098511545254368 -4 0 2
977 279 4 0.435 2.8327872168685606 4.442077666849139 15.687499229695359 3 2 4
1752 502 7 -0.7 9.18542284450097 8.172944072189665 14.240344265482802 2 0 1
635 183 5 0.265 4.317588040080763 7.789790147800467 17.958666696299858 -3 -5 -2
638 183 6 0 5.549842220906961 8.060629230343286 17.04944639325865 -3 -5 -2
976 279 7 -0.7 2.76094906803524 4.842210129966894 14.846302474223766 3 2 4
1206 345 2 0.265 7.483223451268586 -0.37754306179706143 19.720404337289708 2 -3 0
1722 494 7 -0.7 4.19565497564996 1.955620071593069 24.10376049457353 -4 0 2
1721 494 5 0.265 2.815758122920682 2.269107475457326 24.238043301178916 -4 0 2
1609 461 1 0.435 4.691899532088732 6.479929167523968 20.906260714183638 0 -1 4
364 106 3 -0.7 4.205940320185783 0.9148924637982838 13.79818658347943 0 -2 1
246 72 3 -0.7 4.721281042868638 5.793174533629913 13.287427744246788 4 6 -1
1723 494 4 0.435 4.654441983884285 2.3130340239923934 24.862805899140884 -4 0 2
1101 315 3 -0.7 5.613143849789483 2.5308925383154497 21.650982278671197 1 3 1
1100 315 2 0.265 4.761896556741846 2.903988171853057 20.550724380510655 1 3 1
2307 647 5 0.265 -0.408692048228912 2.2478749499717 23.366563549384548 3 3 0
1045 298 1 0.435 4.084950498284259 2.0750568990440903 15.567387423609974 -6 -2 -4
1943 555 6 0 1.362005057358076 4.2299110035072 20.550388434718954 2 0 -2
266 78 3 -0.7 9.135558398403692 0.9343483618689423 23.06608337011312 3 -1 -2
745 214 5 0.265 2.780844834936694 -0.16750724217111207 19.015568378627677 1 0 -3
748 214 6 0 1.9131643412620618 0.01646534572833558 20.32095088581691 1 0 -3
267 78 1 0.435 8.781344943454302 1.8236657957048386 22.948826008209615 3 -1 -2
245 72 2 0.265 5.916343065339533 5.186246383996498 13.785751564444164 4 6 -1
247 72 1 0.435 3.995785775763152 5.334499312961928 13.762768118060327 4 6 -1
365 106 1 0.435 4.099572703822935 1.4191645104144268 12.956456965157964 0 -2 1
676 194 1 0.435 0.6541520714799296 1.02055442424655 13.104643656649952 0 -2 -2
2308 647 7 -0.7 -0.6778790956776124 2.430941214251791 21.977092986457354 3 3 0
363 106 2 0.265 5.548567404519739 0.37274625475534573 13.66743536090045 0 -2 1
675 194 3 -0.7 0.17545959798335775 1.1990413292999533 13.93137839955631 0 -2 -2
747 214 4 0.435 1.1067496446754295 -0.1569231915365792 18.0217766454275 1 0 -3
1753 502 4 0.435 9.284443295884149 8.726777968211813 14.995636815373247 2 0 1
736 211 3 -0.7 7.151538916888224 1.6372117898771297 35.54342688285942 1 2 -1
1317 377 1 0.435 2.283361304886484 3.627246286561549 32.95900230729015 2 3 0
1063 304 5 0.265 0.8781759717048636 2.206911738593464 28.540219613794566 3 4 -5
2404 671 7 -0.7 5.583562099182108 3.139291323070008 26.44178819489864 0 2 -1
1853 530 4 0.435 1.9683001243053626 5.826036869674241 37.72706879608083 4 -1 3
2225 626 4 0.435 3.662246354701489 5.190085769756909 31.703273635706896 6 4 -1
1064 304 7 -0.7 -0.17179398102684473 2.617171842164714 27.585474372668397 3 4 -5
1065 304 4 0.435 -0.510315760273911 1.7625367180184135 27.228482712236136 3 4 -5
2226 626 6 0 4.854135941270224 6.144142231689957 34.04721418959956 6 4 -1
737 211 1 0.435 7.19691342362991 1.4200310040851312 34.61870808123271 1 2 -1
2405 671 4 0.435 5.671670564539341 2.5865643027408853 27.21510060619805 0 2 -1
1854 530 6 0 1.0583142704563278 7.296356290988177 35.209153266285 4 -1 3
1580 453 1 0.435 6.344249220453575 7.75340907496299 30.278337957150296 3 1 1
2403 671 5 0.265 6.9341673117595874 3.487185388217792 26.090475725174606 0 2 -1
1633 468 7 -0.7 6.226555193913376 8.298932400697932 32.01910892780448 2 2 0
92 27 1 0.435 4.821477454127884 1.0348866672230383 28.62183624850615 -1 3 1
2436 679 7 -0.7 3.694609152593534 6.248879810985975 30.390601904508696 -1 0 1
1578 453 2 0.265 7.008899709768141 6.125071226751665 29.785349650018222 3 1 1
1066 304 6 0 0.6458584937094964 2.98230666683538 29.813997897810868 3 4 -5
443 128 3 -0.7 8.070573667736774 8.390128720114081 34.15995602420297 2 5 2
735 211 2 0.265 6.113157206600975 2.616461862771376 35.72781008218337 1 2 -1
1080 309 5 0.265 9.205623020787053 1.4588966417800981 38.53671587659724 0 -1 -2
91 27 3 -0.7 5.35629868587681 1.8021960281676788 28.829027945077243 -1 3 1
2437 679 4 0.435 4.376280712667729 6.867006837559676 30.074566922378743 -1 0 1
90 27 2 0.265 4.70617651861023 2.6819155591558275 29.728156850940806 -1 3 1
165 48 3 -0.7 8.935619765618192 0.6442448088889654 31.12804147370258 0 -1 4
2406 671 6 0 7.017021864354938 5.0426113222319415 25.911088828780976 0 2 -1
1081 309 7 -0.7 8.763171351487355 2.299004677664007 37.45998377298966 0 -1 -2
444 128 1 0.435 8.202003358067026 7.87610029596779 34.966847582510184 2 5 2
2224 626 7 -0.7 3.464334979849169 4.732591075810794 32.49851649329641 6 4 -1
1221 349 4 0.435 1.5791686747482703 1.2576115333724183 33.767777513353195 1 -4 1
2261 635 4 0.435 -0.5528064431255933 6.023629462363294 38.14934936521091 -2 -1 -1
2435 679 5 0.265 2.5441021160349315 6.360062975313689 29.50758569427743 -1 0 1
1903 544 3 -0.7 3.195594523620719 5.066831746874656 38.723625746449216 4 4 2
1579 453 3 -0.7 6.348567326066955 7.31921941207361 29.45033017747049 3 1 1
1634 468 4 0.435 6.859821159023604 8.21815955676703 32.7163114111344 2 2 0
1082 309 4 0.435 8.12377040635878 1.860908400482991 36.885027000067055 0 -1 -2
103 30 1 0.435 7.559809982594647 0.5865576263096823 32.19749153894932 1 -3 1
1219 349 5 0.265 2.6252975087598562 0.3295446799712807 35.1554066358231 1 -4 1
2438 679 6 0 3.0970437727656135 6.987780368003422 28.220838811707203 -1 0 1
1852 530 7 -0.7 1.2031785829355486 6.094717980252234 37.239160021317545 4 -1 3
102 30 3 -0.7 6.797540142574526 0.847866897770448 32.728314620900704 1 -3 1
1851 530 5 0.265 1.755415256076975 7.217122633964535 36.564842865028865 4 -1 3
1316 377 3 -0.7 1.6608851392630881 2.975196474990948 33.32813218649106 2 3 0
1315 377 2 0.265 0.7845263203471144 3.7864654723341786 34.10608839117984 2 3 0
518 150 4 0.435 6.154971936659012 8.041671571591552 28.01250576669933 2 -3 0
101 30 2 0.265 5.687311815139225 -0.018117636473077514 32.566256255862655 1 -3 1
2223 626 5 0.265 4.7129907577375985 4.82614262726086 33.247238512683396 6 4 -1
1902 544 2 0.265 4.5760448100973194 4.943801997510712 38.43213258191507 4 4 2
1220 349 7 -0.7 1.4845919243546208 0.4307565142420371 34.249183105718956 1 -4 1
516 150 5 0.265 7.392791531983416 8.958512636292527 26.840661248946336 2 -3 0
2558 709 6 0 1.86760931069758 0.8630357265900093 38.68455156690955 0 -2 5
517 150 7 -0.7 6.082119010214712 8.496896388151141 27.146440812539904 2 -3 0
740 212 4 0.435 -0.6129131645226098 4.387870343831558 27.644171450548434 1 -1 2
1988 567 7 -0.7 3.7329341219427947 -0.4549713647833753 28.751855452667968 -2 -1 -5
1989 567 4 0.435 3.1131147166219577 -0.4299920897209262 29.504262680045876 -2 -1 -5
770 221 2 0.265 7.145593982371046 15.971542699648406 11.795565020517332 2 -3 2
1507 432 1 0.435 8.621756041988444 13.9771211301347 8.936473983652617 -1 4 0
892 255 2 0.265 4.437525579488573 17.675722216430383 10.32785064138618 1 -1 0
641 184 1 0.435 2.684380769973919 18.330295001363567 12.346714071491494 0 2 -1
1506 432 3 -0.7 7.943732504354324 13.894841303653235 8.247285612324994 -1 4 0
393 114 1 0.435 4.290421843546204 16.37541733015754 1.7105283330771237 0 -1 -1
1274 364 1 0.435 0.5201061047762916 16.613124831091245 12.371951955578318 2 2 0
694 200 5 0.265 8.407230874971361 18.89076993739962 3.4831442399353416 2 3 0
1204 344 4 0.435 0.8618526349438063 9.888483962228035 5.440977406966024 -3 2 2
1740 499 5 0.265 8.626730453165843 10.303112722212648 3.0354645140826175 1 -4 3
1012 289 1 0.435 3.971851183523344 16.81604725626106 4.106171974642699 0 2 2
2060 585 7 -0.7 5.75851508181194 12.838054870839454 12.293578029939207 3 -3 -3
1674 480 2 0.265 -0.7461921351513374 16.790430942607973 2.138974687867888 -3 -2 -1
1741 499 7 -0.7 8.415857577428376 11.344241570550528 2.08478275907349 1 -4 3
1273 364 3 -0.7 0.31583210168517195 15.704695784664949 12.10706926135697 2 2 0
1505 432 2 0.265 7.436627229882566 15.192183392548237 7.947507421767622 -1 4 0
2059 585 5 0.265 5.932830828119552 12.475359155934486 10.92366130694584 3 -3 -3
2062 585 6 0 7.286531599113339 11.641422360963231 10.91584011424594 3 -3 -3
1334 382 3 -0.7 4.697923685284662 17.15680870592326 0.39530749138312016 4 -1 0
1650 473 3 -0.7 -0.43199918745357324 11.091813769850827 5.145181921466836 -2 -3 -2
2055 584 5 0.265 1.9561180713397648 13.657093392439211 3.179867894571931 2 -2 5
2058 584 6 0 3.0643021225670632 12.701528480221944 3.650335792576887 2 -2 5
1011 289 3 -0.7 4.134058254825692 17.148378697970468 4.992035285138067 0 2 2
772 221 1 0.435 6.7634888853985125 14.260439867177727 12.511881042224859 2 -3 2
697 200 6 0 8.323817895987355 17.516941203655733 4.180062793946412 2 3 0
1136 325 7 -0.7 -0.412607552590247 15.345191971387402 4.940779646930951 4 -2 -1
1333 382 2 0.265 5.533388301045574 18.30431533355176 0.5833894806262936 4 -1 0
2590 717 6 0 2.1493014349708304 9.643008668494165 12.204449950365202 -3 -3 -1
1277 365 1 0.435 8.952408544897029 13.408870787095791 4.144169392003193 1 -1 1
2102 595 6 0 5.181870163093153 11.554644884306155 7.000060956958616 0 -1 -1
1651 473 1 0.435 -0.5170976074436848 11.747180545421244 4.475776592433814 -2 -3 -2
2099 595 5 0.265 5.870450201150876 10.862445035919244 5.811335597778174 0 -1 -1
1138 325 6 0 0.2471070869472638 16.66898699236055 6.875277119117559 4 -2 -1
2057 584 4 0.435 0.49086835804064677 14.024771216295292 4.438381305319818 2 -2 5
1276 365 3 -0.7 9.034411257675327 13.564846820007574 3.223705050064722 1 -1 1
894 255 1 0.435 5.182619636581038 18.832341137464855 11.598872372310627 1 -1 0
392 114 3 -0.7 4.2278727329941495 15.927723227930162 2.5663682937535692 0 -1 -1
1010 289 2 0.265 4.255844263418785 16.094522873553576 5.940361498501691 0 2 2
2349 657 4 0.435 8.770350230080203 13.233413096957282 6.762380933453178 1 0 1
893 255 3 -0.7 4.351514270653221 18.35064594972202 11.60489095745303 1 -1 0
1742 499 4 0.435 8.518045850133014 12.243847432792402 2.426268465915632 1 -4 3
440 127 4 0.435 4.930136468445788 18.64464625237277 4.933652489877039 5 1 1
2445 681 4 0.435 7.721490678574888 11.025485877964782 0.5104091482690221 0 -2 -2
2056 584 7 -0.7 0.7185765597244975 13.344745084903947 3.77805080221569 2 -2 5
391 114 2 0.265 5.402068359298115 15.13967850812968 2.7283116502537177 0 -1 -1
640 184 3 -0.7 1.7888943680922074 18.114093427182443 12.610029413448881 0 2 -1
2100 595 7 -0.7 5.314769523867616 9.532435169591713 5.698938275727116 0 -1 -1
2348 657 7 -0.7 8.843311931103722 12.877769859133357 5.884591646874678 1 0 1
1926 551 2 0.265 0.9113745875260495 13.762219452244599 -0.014361325880503595 0 1 2
1720 493 1 0.435 -0.6826785947444601 15.06249472557144 10.4702271530507 -2 2 3
2101 595 4 0.435 4.968294804169852 9.538439456608579 4.837499163960915 0 -1 -1
1135 325 5 0.265 -0.8258794368166633 15.745271521947888 6.279858391245182 4 -2 -1
1509 433 7 -0.7 7.84489990860242 17.909630642016285 22.19870294830293 -2 0 -3
371 108 7 -0.7 3.26724898589523 16.314780485254374 15.268249387166378 -1 -1 -1
1272 364 2 0.265 0.8765520576370536 14.878050537834932 13.084479442689755 2 2 0
370 108 5 0.265 4.515253180747086 15.650177456362943 15.14145209663045 -1 -1 -1
869 248 4 0.435 -0.26816844580976784 18.93464848239496 25.04889341918825 2 1 -2
2084 591 7 -0.7 0.29999055282388465 12.527685574269897 23.956496198332726 0 -5 3
1586 455 3 -0.7 5.071696216561257 18.181177736965488 22.98983795050492 -3 -1 1
18 6 2 0.265 6.721659087267509 10.268341354455531 14.609964791345107 0 3 -3
1868 534 6 0 4.395391446756963 11.458050310177418 25.27608798923948 1 -2 -1
20 6 1 0.435 5.196139978915872 9.744291873768786 13.46308889094076 0 3 -3
2578 714 6 0 7.421904057679475 10.572980728270764 19.33351263704603 0 0 2
474 137 1 0.435 8.708645247063298 15.721982603904486 13.681198873309686 -1 1 -1
1587 455 1 0.435 4.321429207925713 18.69844332359233 22.646332192705174 -3 -1 1
342 99 1 0.435 5.555273702151105 18.37456912550681 24.721047051544033 -1 -3 0
1523 436 6 0 6.725801343825984 14.986708832483737 19.5852055295464 -5 0 0
1799 515 4 0.435 0.2084724266402902 11.51396352433672 25.281672363210742 -1 1 0
372 108 4 0.435 3.0554256213009254 16.66692728533144 14.414540702661606 -1 -1 -1
1127 322 1 0.435 2.2751464126975356 11.340859637471853 21.44592989654434 -2 -4 2
1781 510 3 -0.7 7.180187197661203 13.265522332555415 23.580943045987983 -2 0 -2
1865 534 5 0.265 4.194518774444274 12.919711925398746 24.933001733476676 1 -2 -1
2488 692 7 -0.7 -0.3146659672696057 10.337048955540324 22.69927728118224 2 -1 2
373 108 6 0 4.54610175430257 14.356253392726135 15.985836412741918 -1 -1 -1
1421 407 6 0 2.42432054158657 13.465221870251783 19.17882811400834 3 -1 -2
1420 407 4 0.435 3.678302960201691 12.98601991903431 22.186417589596495 3 -1 -2
1780 510 2 0.265 8.288720656789408 12.871095270706071 24.390520494655227 -2 0 -2
2576 714 7 -0.7 5.152271310264969 10.685641632245451 20.256787514283815 0 0 2
1867 534 4 0.435 5.470818138700547 13.188976391294847 23.533495253817286 1 -2 -1
2489 692 4 0.435 0.4591946685969197 10.465034228959398 22.152224525094283 2 -1 2
1447 415 2 0.265 5.113671691467312 18.337270978043502 18.54168125777089 2 -2 -2
2061 585 4 0.435 5.658706083096282 12.055564154649845 12.808008657784452 3 -3 -3
2575 714 5 0.265 6.473777448207407 11.218901204023496 20.34067284110789 0 0 2
1418 407 5 0.265 3.0668698179250655 13.861667678327354 20.516312293584548 3 -1 -2
19 6 3 -0.7 5.523435206420489 10.608783350404194 13.8151796048698 0 3 -3
1985 566 4 0.435 1.7337191178310034 16.46405980742878 16.47988883831944 4 0 -1
1983 566 5 0.265 -0.19077777204073665 16.364728023322048 17.01470298524746 4 0 -1
1419 407 7 -0.7 3.4892341537070717 12.69609231619762 21.280207094811896 3 -1 -2
2577 714 4 0.435 4.516079023471264 11.273894397365401 20.628201243202614 0 0 2
1585 455 2 0.265 4.852181820717695 16.868464909525507 22.44988451546534 -3 -1 1
1520 436 5 0.265 7.978090625960798 15.027940198483822 20.464724221481877 -5 0 0
1984 566 7 -0.7 1.0825115949360422 17.017297895655112 16.8904745372786 4 0 -1
1866 534 7 -0.7 4.497804239113128 13.149779683059046 23.55197335276032 1 -2 -1
1782 510 1 0.435 7.405314981636586 14.046378925775976 23.029079140795325 -2 0 -2
1522 436 4 0.435 8.014151074310249 16.10938675711222 22.129695730359714 -5 0 0
2083 591 5 0.265 -0.5561867493872351 13.63289521132574 23.7529522169079 0 -5 3
1521 436 7 -0.7 7.8273280666014 15.162662413381616 21.89234257461628 -5 0 0
2085 591 4 0.435 -0.13472808050417517 11.748880660184245 23.628283108605576 0 -5 3
639 184 2 0.265 1.3029136393765004 18.782503212105546 13.785851885766736 0 2 -1
1125 322 2 0.265 2.7389778676284826 9.5654712278416 22.177072967846975 -2 -4 2
211 61 6 0 5.618100164103185 19.342470233433023 14.40924293473439 2 1 1
1126 322 3 -0.7 1.9333503451281882 10.449133734194175 21.395292477384544 -2 -4 2
341 99 3 -0.7 5.73231445445648 18.35088363625182 25.641534043212086 -1 -3 0
867 248 5 0.265 1.2231033033523402 17.766304271957413 25.314175660625292 2 1 -2
1510 433 4 0.435 6.958737088314218 17.769525290757503 22.53890917656417 -2 0 -3
2086 591 6 0 -0.19285936230124323 14.08553794054797 22.35494651855448 0 -5 3
771 221 3 -0.7 7.386872210586837 14.926706044600918 12.751592509724166 2 -3 2
868 248 7 -0.7 -0.046829294634862406 18.29576486798368 25.70925202638902 2 1 -2
1508 433 5 0.265 8.327608470604853 19.098028928351233 22.844418325666563 -2 0 -3
543 157 7 -0.7 1.2621516711429885 13.05628638800001 29.718919958469694 0 2 1
586 170 5 0.265 8.71929604655334 18.713410818535078 32.51490440089246 0 0 4
547 158 3 -0.7 1.924826174833612 16.943747548055875 37.12831115000833 0 4 -2
1356 388 1 0.435 8.54361123817273 13.637948948123109 34.236246692900735 -1 0 -2
542 157 5 0.265 2.3658544393417604 13.936298188214748 29.687257178639896 0 2 1
1786 511 6 0 8.851488683072647 9.720740485945939 30.539513123982623 -3 -3 1
1095 313 1 0.435 -0.0003248746179023154 17.96014047148615 33.81707373824746 3 1 -3
1639 470 2 0.265 0.9350744321302771 15.741399264635614 34.0007119257789 -2 -2 3
487 141 3 -0.7 5.2287232959109335 18.015317170235825 35.21506194315411 2 3 -1
857 245 5 0.265 2.886187665699831 11.232527151556482 36.82462499762278 -1 2 -4
1641 470 1 0.435 1.6074986288737567 16.89231161442617 35.25081299656058 -2 -2 3
1640 470 3 -0.7 1.1172394566862354 17.05269037323397 34.44765948875376 -2 -2 3
1635 468 6 0 4.83775002227012 10.02612970887015 31.042816005149216 2 2 0
859 245 4 0.435 4.159567494373937 11.182121913274578 35.35421218040091 -1 2 -4
167 49 2 0.265 4.1120808587759194 13.045044200546341 33.285982429846044 -3 -6 -3
1263 361 6 0 8.162234671683247 17.523727622996304 28.83826052115063 2 -4 0
1054 301 3 -0.7 4.201529145247127 19.207746282681057 33.09503265261337 4 -5 5
544 157 4 0.435 0.9603195371416724 12.990930175693096 28.8485756076142 0 2 1
1711 491 2 0.265 1.5365746401072715 10.009659464005214 32.45966141953079 -5 -3 0
730 209 6 0 4.642058119118772 18.47931169869849 29.271773043359698 -1 0 -2
2421 675 4 0.435 5.234421642270992 16.77540626138989 36.50852357959759 -1 -5 0
1713 491 1 0.435 2.119834704437384 10.436302691787986 34.368799137239634 -5 -3 0
2422 675 6 0 5.772706409304865 14.013624987422787 38.11622432802689 -1 -5 0
488 141 1 0.435 5.066486625707304 18.3711579072363 34.2837466569442 2 3 -1
168 49 3 -0.7 4.845821268141638 12.657641968079757 34.49734406059849 -3 -6 -3
860 245 6 0 3.6967286882078527 10.708899688802479 37.991542470790606 -1 2 -4
169 49 1 0.435 5.424424963592715 13.414467221427378 34.60357384581678 -3 -6 -3
548 158 1 0.435 2.6942626142876067 16.46289538952688 37.43430701707682 0 4 -2
2420 675 7 -0.7 4.967099762307794 16.09260592346442 37.09802413358709 -1 -5 0
2419 675 5 0.265 5.66977859751388 14.886778565588724 36.82346580985359 -1 -5 0
545 157 6 0 2.0258542440950205 15.203811088434719 30.472154902505643 0 2 1
1355 388 3 -0.7 7.624655357442753 13.706954574582971 33.91105907580959 -1 0 -2
1614 463 7 -0.7 8.682301640946077 17.840963942045068 38.273850007412236 3 2 3
1712 491 3 -0.7 1.4777303769024868 10.687190423287825 33.71060068435196 -5 -3 0
589 170 6 0 7.280913906288035 18.2236678689635 32.25510373522954 0 0 4
2444 681 7 -0.7 7.647292224802218 10.979318537122502 38.72818448935138 0 -2 -3
1053 301 2 0.265 3.183490197669559 18.27875784106256 32.70266757798554 4 -5 5
858 245 7 -0.7 3.525112451668278 10.585468229168823 35.713098834002324 -1 2 -4
1354 388 2 0.265 7.693641898076807 13.48012641571643 32.50544983168329 -1 0 -2
486 141 2 0.265 5.751437150393188 19.1732509150604 35.915222210571514 2 3 -1
442 128 2 0.265 8.498191627531696 9.692561241535463 34.42565024602443 2 5 2
1424 408 1 0.435 -0.2117363666091061 12.80376764520707 26.82807980377964 3 -2 4
870 248 6 0 2.1717429277735114 17.428840165146767 26.48131233856099 2 1 -2
1423 408 3 -0.7 0.03761769297322792 13.431846413092106 27.49708741243153 3 -2 4
1260 361 5 0.265 8.382254430872159 18.914629899580074 28.21472237730316 2 -4 0
340 99 2 0.265 6.273837547378141 17.056229118531586 25.871125969355198 -1 -3 0
1800 515 6 0 1.2078375440078282 9.975865701276103 27.941673842975494 -1 1 0
1335 382 1 0.435 4.698458373327177 16.778325639835256 38.69187408559554 4 -1 -1
546 158 2 0.265 2.348868608659417 18.261886425819515 37.54575456244551 0 4 -2
1798 515 7 -0.7 0.057651872519933534 10.95262947335694 26.055850267200757 -1 1 0
1928 551 1 0.435 0.9515596039145358 14.505443031028282 37.32274325611782 0 1 1
1632 468 5 0.265 5.435455648733465 9.474220613176067 32.335215381111695 2 2 0
1339 384 5 0.265 -0.7249969529544411 18.12654441497342 29.14205562697281 2 0 0
1031 294 4 0.435 -0.37448045436034644 13.130337241756195 30.898737440133296 -3 -1 0
1797 515 5 0.265 1.2975104896675136 10.402111611385205 26.47534376053244 -1 1 0
1927 551 3 -0.7 1.5516029831224274 14.119756588331192 37.93809613498574 0 1 1
2443 681 5 0.265 7.691839357147002 9.652305765209437 38.29548691987692 0 -2 -3
1094 313 3 -0.7 -0.7381867324830221 18.501719808746603 33.47761934743741 3 1 -3
1616 463 6 0 9.282591072214634 15.81030802413348 37.19321959704706 3 2 3
1613 463 5 0.265 9.288927082826076 16.560447676884632 38.54240754656577 3 2 3
1615 463 4 0.435 9.264433261841662 18.4852602449185 38.65319068455466 3 2 3
1341 384 4 0.435 -0.7559680774543764 18.245408081924268 27.155440573296204 2 0 0
536 155 4 0.435 7.821363660829352 22.9882751383107 10.962487272632089 1 -3 0
1091 312 3 -0.7 3.226676047296391 27.07507523414692 12.246118344595551 -2 0 -1
2273 638 4 0.435 -0.4288744644623972 20.37766924391631 6.9898824007347 2 0 2
1304 373 1 0.435 -0.09825797253141155 25.025371502105457 4.185688407771786 -1 -5 -2
210 61 4 0.435 7.125101674460901 20.457761159340887 11.756377392837202 2 1 1
2351 658 5 0.265 -0.6150985215278344 21.057917612100116 1.732875118528197 1 5 3
534 155 5 0.265 7.687562521552815 22.189949535699874 9.245898628758004 1 -3 0
2610 722 6 0 5.814191555835201 27.62607206911958 1.6725726066679263 -1 3 -1
2114 598 6 0 2.4682590313202235 21.956247686320207 11.214950963524368 2 2 1
441 127 6 0 4.455763268940021 20.695682956586765 2.965160222834557 5 1 1
2394 668 6 0 0.8795733642825647 26.39580129544682 8.201683245022902 2 -1 2
1438 412 4 0.435 -0.05736248851395909 29.16090438590883 0.27691503575320764 0 4 4
1975 564 5 0.265 2.34686426072842 24.637575319935227 2.508236363644006 1 -3 8
2354 658 6 0 -0.2329564858030866 22.3543089895606 0.9869712406419688 1 5 3
2391 668 5 0.265 1.1280767785325205 25.037910313512285 8.921473623689705 2 -1 2
1976 564 7 -0.7 1.4342241253522685 24.285579838022883 3.521251369043315 1 -3 8
1441 413 7 -0.7 3.087009065666579 23.702251073612594 5.652950792238421 -1 1 2
1092 312 1 0.435 2.638523475593772 27.784509999795162 12.010043900761792 -2 0 -1
1977 564 4 0.435 1.9667804111926097 24.034744817361183 4.2734826885550685 1 -3 8
2609 722 4 0.435 4.627716637876839 28.789481726053964 4.4636450067337075 -1 3 -1
1041 297 3 -0.7 8.2216118460728 24.596807618167727 11.619658796137248 3 0 -1
230 67 1 0.435 6.974777353807567 28.16053129932287 4.318945170610086 0 -1 -3
537 155 6 0 7.864626230809499 20.790656833841386 8.613016468851864 1 -3 0
1042 297 1 0.435 7.90749495581221 25.47474623444748 11.589871806771757 3 0 -1
229 67 3 -0.7 7.84017296893111 27.91239897405798 4.676027181097476 0 -1 -3
2112 598 7 -0.7 1.8844232410639319 21.59676221145102 8.825311152500921 2 2 1
2075 589 5 0.265 8.863287688373058 22.9533631956226 4.66533697033952 -2 1 2
2258 634 6 0 -0.0750456730509893 25.437839922575016 12.552832284214048 -2 1 0
2111 598 5 0.265 1.5865240807271328 21.158410305667328 10.16209938050856 2 2 1
1163 333 5 0.265 9.015815536080822 26.014139937674408 1.0996670114073845 1 -4 0
2393 668 4 0.435 1.7326394310574784 23.26561631986872 8.36118851361388 2 -1 2
1443 413 6 0 5.075080356619602 24.655444406901292 4.666620144177503 -1 1 2
2392 668 7 -0.7 1.6605117035780057 24.114502685925387 7.923681586835061 2 -1 2
438 127 5 0.265 4.348311746407063 20.431752835702053 4.463836823640589 5 1 1
1978 564 6 0 1.8082200925914695 25.78385484252836 1.6141139858268616 1 -3 8
535 155 7 -0.7 7.795535952106492 22.079689056055603 10.67931921028075 1 -3 0
2607 722 5 0.265 4.983969544858477 28.539261600312912 2.558114654539414 -1 3 -1
2272 638 7 -0.7 0.5269399105040384 20.361980973780273 6.967390590688893 2 0 2
439 127 7 -0.7 5.383074300204069 19.477083577722357 4.766383458859216 5 1 1
1442 413 4 0.435 2.5584317892076878 23.70148712866417 6.438891914604684 -1 1 2
1440 413 5 0.265 4.4046398187093425 24.12234696174002 5.932985216716249 -1 1 2
1090 312 2 0.265 3.846050810938749 26.584057853647664 11.061796192978095 -2 0 -1
209 61 7 -0.7 6.696396014198621 19.72812999502563 12.247430724954093 2 1 1
2113 598 4 0.435 1.445010459698119 21.017467353778027 8.184716395349328 2 2 1
2271 638 5 0.265 0.8323699707827295 20.895527584942336 5.665901197140627 2 0 2
228 67 2 0.265 7.672886608223349 27.9747199593984 6.078492670958676 0 -1 -3
1164 333 7 -0.7 8.836121352708362 25.92841761608104 -0.3323418191903362 1 -4 0