LAMMPS data file via write_data, version 29 Aug 2024, timestep = 11000000, units = real

3148 atoms
7 atom types
2148 bonds
5 bond types
1148 angles
3 angle types
444 dihedrals
3 dihedral types

0.6264225574966815 42.980227442459395 xlo xhi
0.9592027611588776 42.58249723884076 ylo yhi
1.0512984092528797 42.19151159070457 zlo zhi

Masses

1 1.008
2 15.011
3 15.999
4 1.008
5 14.011
6 15.011
7 15.999

Pair Coeffs # lj/cut/coul/long

1 0 0.4
2 0.195 3.75
3 0.185 3.02
4 0 0.4
5 0.0914 3.95
6 0.195 3.75
7 0.185 3.02

Bond Coeffs # harmonic

1 1000 1.43
2 1000 0.945
3 1000 1.54
4 1000 1.43
5 1000 0.945

Angle Coeffs # harmonic

1 55.045 108.5
2 55.0452 108.5
3 50.0772 109.47

Dihedral Coeffs # fourier

1 3 0.416953 1 0 -0.0579664 2 180 0.373453 3 0
2 3 0 1 0 0 2 180 0 3 0
3 3 0 1 0 0 2 180 0 3 0

Atoms # full

1171 341 1 0.435 9.857337505651394 1.6146775761048513 10.777060900550774 -2 1 0
2723 859 2 0.265 1.4748037957602667 5.012420115006825 6.805214711663067 3 0 -3
2575 809 1 0.435 5.816723188273312 3.4436930214983272 11.638287847443658 7 -5 2
2725 859 1 0.435 2.728571551691181 4.608211050123117 8.16051365857188 3 0 -3
1205 353 2 0.265 7.991774155033587 6.449664018932957 6.928275252633666 1 -1 -5
2941 931 1 0.435 5.445923036780487 5.016611673170099 13.356975561252787 1 5 -3
2501 785 2 0.265 1.7315885760090364 4.009203953090832 10.74038954536857 4 -4 -6
1517 457 2 0.265 7.672144582535604 11.182013889835707 8.114958416961063 0 -1 5
2987 947 2 0.265 4.099397458355194 10.777266598332966 10.412429923238877 4 -3 -3
2537 797 2 0.265 9.13882530548483 7.224092982880865 10.670346160636663 0 -3 0
2539 797 1 0.435 9.653149198638262 8.033954800364388 12.302409816032581 0 -3 0
1740 531 3 -0.7 7.447671581249099 10.310259259334984 11.352891517679284 3 0 3
2724 859 3 -0.7 2.6070510621066387 5.365002075815392 7.603406579983069 3 0 -3
1727 527 2 0.265 3.2029900891345227 9.763819266399409 2.4198730409759612 3 -2 2
3014 956 2 0.265 7.107502268404876 7.356220807394253 2.953918045891136 -1 1 0
2538 797 3 -0.7 9.25205790898105 8.356465528957319 11.506697531179924 0 -3 0
1111 321 1 0.435 11.160666289044386 7.558777387702978 13.658559485166668 3 2 0
1110 321 3 -0.7 10.247332936918406 7.401218143532489 13.816271419190574 3 2 0
2573 809 2 0.265 5.4693814835129135 1.4925834475228033 11.754977073689366 7 -5 2
993 282 3 -0.7 5.650448080004487 2.804109533247651 2.5325970382087384 -3 0 -3
359 102 6 0 11.150419121386369 10.873649086841855 14.75618294895992 -2 4 -2
3016 956 1 0.435 7.373581119847878 7.836820266536978 4.82857439555292 -1 1 0
1729 527 1 0.435 4.973440124799461 9.05407822083401 2.875887438841341 3 -2 2
2574 809 3 -0.7 6.262145974264245 2.641080850184129 11.39635269598021 7 -5 2
1207 353 1 0.435 9.328720553989983 7.650953074406696 6.37893420047917 1 -1 -5
1118 324 2 0.265 9.664270081550713 10.74053603079046 3.7555948133792896 -4 -2 3
2862 905 3 -0.7 8.859018591865132 2.810711507706209 11.384316891018484 1 -1 -4
2939 931 2 0.265 5.9317464266237625 6.709965956652209 12.476327457763354 1 5 -3
1728 527 3 -0.7 4.474396288766333 9.315309259594226 2.1014204011422732 3 -2 2
2502 785 3 -0.7 2.9828405303053684 3.827747064348046 10.04673571530336 4 -4 -6
580 166 3 -0.7 4.371630639289901 3.4390277529405644 4.583393279391862 0 1 1
581 166 1 0.435 4.872660380016687 3.409009773532338 3.7593113965486804 0 1 1
2989 947 1 0.435 3.2448641200822164 9.567119752147075 9.00748256696717 4 -3 -3
3015 956 3 -0.7 6.729170723002766 8.073268119414301 4.145034137770324 -1 1 0
2503 785 1 0.435 3.5942733269026306 4.416854468354203 10.385394235057237 4 -4 -6
618 176 6 0 10.656593133474864 3.6391512053282833 2.18370772851598 0 -2 1
992 282 2 0.265 6.987890927721891 3.2204775086081976 2.1414509890657074 -3 0 -3
946 267 1 0.435 3.3045852609760593 2.1594654728186766 3.967313523624366 -3 -1 0
1931 595 2 0.265 1.8473389665617412 5.573362407204113 2.6912768451280273 -3 -1 1
2988 947 3 -0.7 3.027048171586456 10.368914420289235 9.57152367152609 4 -3 -3
2225 693 2 0.265 0.8734988468594383 6.969843299108197 12.756472123113703 5 -1 -3
994 282 1 0.435 5.323900819373406 2.1516931977193305 1.9830223731649492 -3 0 -3
615 176 5 0.265 11.012939287602595 3.1135561093448296 3.587459425455632 0 -2 1
1206 353 3 -0.7 8.424081142067587 7.6059639148169715 6.1823533614626305 1 -1 -5
1741 531 1 0.435 7.985387568574653 9.548725784559732 11.47288376510293 3 0 3
2843 899 2 0.265 4.073615721217299 8.297373201007133 6.767412747126213 4 3 4
2861 905 2 0.265 9.146802009771134 3.909841452594986 12.271548841663689 1 -1 -4
3057 970 3 -0.7 10.90056573897119 7.671576772833007 6.674564331153813 1 2 -1
2942 932 2 0.265 2.9341825779607436 10.259748065917716 14.273611629458475 2 4 1
2940 931 3 -0.7 5.496680278887472 5.31819863406143 12.445746814469354 1 5 -3
579 166 2 0.265 5.206592719240867 3.341161163284407 5.697160392620379 0 1 1
2863 905 1 0.435 7.889978892854989 2.8843331910320185 11.26297314703198 1 -1 -4
2845 899 1 0.435 3.1083499017382494 7.1557017739688265 7.898859246643049 4 3 4
945 267 3 -0.7 2.8119012174956826 1.3666210137025523 3.7146241122058172 -3 -1 0
2844 899 3 -0.7 3.413192208389752 8.021238900389251 8.006151181944666 4 3 4
3125 993 2 0.265 7.552465114437219 1.113980171354704 7.979093186862145 1 3 -2
2943 932 3 -0.7 2.3090179674162528 8.977981001447063 14.47509367855105 2 4 1
2785 879 1 0.435 10.938540828810348 0.9803116319819286 8.8436328557178 -2 4 2
2784 879 3 -0.7 11.156398493395326 1.1340117796993718 7.940159871668974 -2 4 2
1739 531 2 0.265 7.8634998043573345 11.342907181991203 12.245775364547413 3 0 3
2624 826 2 0.265 1.3811778535451564 8.541093030453276 20.949298346591384 0 0 1
685 194 7 -0.7 10.671027117720906 1.827032088819575 27.977785752578935 -3 2 0
1838 564 2 0.265 8.702258905491705 7.127211343278251 24.09943130119356 1 -3 0
2441 765 2 0.265 6.417078897242235 10.020772632578485 23.906655344221612 3 2 -3
483 137 4 0.435 10.093701022030588 2.263239589888093 18.44125966509732 -1 0 0
709 201 7 -0.7 6.165745085390714 5.253015149059282 22.463638437236256 1 0 3
1467 440 3 -0.7 9.70557384948139 9.654546817188702 28.192252358101427 -1 -3 0
1989 614 3 -0.7 6.041388382588656 7.787028368542316 16.700999081794183 -2 0 -2
1591 481 1 0.435 4.900251463172382 7.340327046081577 26.033264887735793 -5 -1 2
1988 614 2 0.265 6.225388425037302 8.67038153530428 15.548606609606704 -2 0 -2
1814 556 2 0.265 7.724628032239353 2.356073476376413 25.80376008420005 1 -1 7
2416 756 1 0.435 2.931565118354466 6.586951412572409 25.712191650616756 1 1 1
1815 556 3 -0.7 8.123906806465715 2.663087760183595 27.141008327096188 1 -1 7
315 90 3 -0.7 1.4279493036973472 5.554539865049857 26.612320273217318 0 1 1
2291 715 2 0.265 10.782061392413858 3.718115631200643 21.28982753465238 -2 -2 -1
1003 285 1 0.435 5.745091597591961 3.602432747460246 21.75173017748219 2 -2 -2
1760 538 2 0.265 2.79990694216704 3.161545201952106 18.854287210738452 -2 -1 2
2414 756 2 0.265 2.2063928166016242 8.06625278207592 24.77406768455722 1 1 1
1555 469 1 0.435 4.497461363717493 1.9095092812483547 23.144931370472833 4 5 1
1554 469 3 -0.7 3.7687680439736417 1.655638033840769 23.694063214968253 4 5 1
2292 715 3 -0.7 11.096395879829346 3.192923179830324 19.980883136479143 -2 -2 -1
711 201 6 0 6.041429469510107 6.741329969400304 20.61761465642603 1 0 3
1990 614 1 0.435 5.140407466194769 7.750327539433826 16.953854383200383 -2 0 -2
2768 874 2 0.265 1.5863889765173538 4.973855115658436 22.491513568556954 -4 3 -4
2944 932 1 0.435 2.7050627500683997 8.56787497332245 15.218511242751557 2 4 1
2337 730 3 -0.7 3.327884647394979 8.092395153563837 17.064909267364104 -2 1 -2
2770 874 1 0.435 1.210201042487085 4.940684036365978 20.58846889137376 -4 3 -4
1589 481 2 0.265 5.728425829077888 8.728371172527517 27.12464309786558 -5 -1 2
710 201 4 0.435 6.709723433583869 5.506242310536708 23.159225806142924 1 0 3
1001 285 2 0.265 6.208669754588982 1.8827848705317378 20.94066808916746 2 -2 -2
1590 481 3 -0.7 5.768528844050261 7.553077638978983 26.268743387591314 -5 -1 2
2679 844 3 -0.7 7.093231243707183 1.691043058533396 18.074059289125902 0 -2 0
1016 290 2 0.265 4.532579460352027 3.6105712188033054 15.624913244746148 2 -4 2
2338 730 1 0.435 3.203299792678822 8.83266271815187 17.689641659272784 -2 1 -2
2415 756 3 -0.7 3.180774108456299 7.510586563106956 25.612030239560497 1 1 1
1816 556 1 0.435 7.433718671045205 2.2493140246258045 27.684055097979318 1 -1 7
1839 564 3 -0.7 7.732153777007383 6.106344663829574 24.45057300533291 1 -3 0
1002 285 3 -0.7 5.417179453717743 2.7347079434521415 21.82676310419865 2 -2 -2
2769 874 3 -0.7 0.8103648522020159 5.38586458962288 21.338813958364664 -4 3 -4
524 150 5 0.265 4.54524099628165 10.437458152178454 19.26343912704986 4 -2 0
1840 564 1 0.435 7.449686124487757 6.216539728533029 25.32193788972076 1 -3 0
2336 730 2 0.265 2.6171771732409708 7.040950454106472 17.724800113674036 -2 1 -2
1229 361 2 0.265 8.18912061228521 5.513905624314902 18.149577005897104 2 -1 -3
1553 469 2 0.265 3.6824280847142488 2.38661705493321 24.852892218655434 4 5 1
1230 361 3 -0.7 7.42763309002122 5.615283097211592 16.920708329009724 2 -1 -3
708 201 5 0.265 5.423135208024158 6.344453776067529 21.97348680725325 1 0 3
1231 361 1 0.435 7.00574536713214 6.467046969477539 16.925650807631538 2 -1 -3
1761 538 3 -0.7 1.6362033170911006 3.939441904273446 19.245104272377134 -2 -1 2
525 150 7 -0.7 3.221331474060115 10.075710792440269 18.88466768367417 4 -2 0
1017 290 3 -0.7 5.45261659573042 4.450337240532816 14.976585658699845 2 -4 2
2680 844 1 0.435 8.060131254240956 1.6622661842133128 17.914798426896578 0 -2 0
527 150 6 0 4.61992988636208 10.502451454453677 20.77193233998335 4 -2 0
1363 405 1 0.435 9.76447207095208 6.393447828885702 28.215816042594135 0 0 3
1762 538 1 0.435 0.9507932767761249 3.2561071004702486 19.17591003340801 -2 -1 2
1018 290 1 0.435 6.065650273880167 4.665295956755214 15.63875749724651 2 -4 2
482 137 7 -0.7 9.749117871657269 1.6165099174868833 17.846333410539266 -1 0 0
314 90 2 0.265 2.03850593449016 5.6230461274434544 27.892127594901968 0 1 1
2678 844 2 0.265 6.4665611302138775 1.1485211183720228 16.91464400222328 0 -2 0
2999 951 2 0.265 11.081359254617633 10.145953260533522 18.641440643579376 -1 1 0
1109 321 2 0.265 10.074933332004262 7.388587021195155 15.227897646373156 3 2 0
475 135 4 0.435 8.505408385935178 11.326620517198293 28.124615776113693 -5 -2 -2
686 194 4 0.435 9.88518594362746 2.3584803169587634 27.88128340669283 -3 2 0
526 150 4 0.435 2.8278651043148875 10.932135834761716 18.697308477468766 4 -2 0
870 246 2 0.265 3.0131263682042695 11.239300039691882 25.102637803681123 0 -5 -1
1092 315 3 -0.7 1.5555001009353577 1.5498203780663402 15.98433559524706 1 2 0
1093 315 1 0.435 1.0792767719338128 1.8423840089501504 16.73885308677645 1 2 0
1468 440 1 0.435 9.502921336862597 8.75640039165 28.40182630192489 -1 -3 0
2243 699 2 0.265 5.149964836820233 4.368731014901679 37.74694858039402 4 2 -2
2904 919 3 -0.7 6.954682540756253 10.142730917644931 40.209489778849324 2 -2 1
1243 365 1 0.435 1.7495310086698355 3.601649962898425 39.25920634018539 0 5 -7
411 117 3 -0.7 3.1780032038403654 5.743007985311121 30.830695543922975 2 -1 1
1296 383 3 -0.7 5.841809778820989 2.1118710873856883 28.83761252697149 -1 0 0
2835 896 3 -0.7 4.690880543752479 8.334842372397745 34.899096558743864 -2 0 0
2478 777 3 -0.7 1.6836443376748182 2.8875026322668793 37.56566562340283 0 0 -7
360 103 5 0.265 9.220455235928005 7.430229266648833 38.67421961860769 0 0 -4
684 194 5 0.265 10.935170046323869 1.789655554841525 29.357494275964807 -3 2 0
2444 766 2 0.265 5.038279863306133 7.191243281041308 40.61259630380979 -1 4 -3
286 82 7 -0.7 1.3596386963871452 7.880140864741693 30.86593341886119 -1 -1 4
1241 365 2 0.265 2.3071204198617346 3.0233423059320783 41.034070904666734 0 5 -7
410 117 2 0.265 4.546167048516559 6.1207918292188594 31.165363735488985 2 -1 1
2905 919 1 0.435 7.842129161680426 10.455195371577103 40.14354850338853 2 -2 1
362 103 4 0.435 7.342875521062029 7.719851739639703 38.381637277840916 0 0 -4
2446 766 1 0.435 6.318167810290447 8.499848616419067 40.215302803878686 -1 4 -3
485 138 2 0.265 7.367136788974096 2.090422382865367 31.942883613829522 4 -5 -2
2834 896 2 0.265 4.237616268545498 6.99147303099633 35.0949762079098 -2 0 0
1242 365 3 -0.7 1.6698648932945959 3.964221094344468 40.14054157069333 0 5 -7
336 96 2 0.265 9.188040255523399 6.867703575551137 34.300845342323 -6 -2 4
693 196 4 0.435 2.3344243414883006 2.5358320132678323 31.26941696280343 2 6 2
691 196 5 0.265 3.5608661765720186 2.532763291919032 32.74448637864984 2 6 2
1466 440 2 0.265 10.946404703346754 10.021897010563952 28.83637176641549 -1 -3 0
2836 896 1 0.435 5.261110694331557 8.30526677300253 34.12808472210465 -2 0 0
247 71 3 -0.7 6.751927789485534 1.2328482738160458 37.01294218727765 -4 2 4
2580 811 3 -0.7 6.423672239899774 8.829125546817565 32.95897528787011 4 -1 1
363 103 6 0 10.533145772478816 6.997335081337687 37.99806805429101 0 0 -4
412 117 1 0.435 2.8769034186233617 4.994144562766047 31.371287653432134 2 -1 1
2200 684 1 0.435 8.683598218962956 9.630826585241072 37.18373641703768 -3 -1 2
1297 383 1 0.435 5.247356210690348 1.382213817271012 28.91635743909592 -1 0 0
1117 323 1 0.435 10.175962921522776 10.13709871825365 35.64708136454939 2 2 -2
408 116 4 0.435 10.407408303643843 10.831829578275837 40.882344684085744 -1 2 -6
2199 684 3 -0.7 8.805381629728961 10.350497887147403 36.56213347587053 -3 -1 2
361 103 7 -0.7 8.117494349991356 7.826001033053813 37.83888124471029 0 0 -4
694 196 6 0 4.242851361171127 3.585908880177138 33.69770111575355 2 6 2
2245 699 1 0.435 5.335280850183375 2.450117394363075 37.309353015119086 4 2 -2
2477 777 2 0.265 1.2755639152587657 1.7331668923521222 36.82340854942706 0 0 -7
1007 287 2 0.265 1.7057204245704738 9.107760295155341 39.43939573195929 2 0 3
1087 313 1 0.435 10.275928640176751 11.13898088952071 33.64779551682784 -4 2 0
692 196 7 -0.7 2.7079299369945957 3.199582141584389 31.77910885852922 2 6 2
1116 323 3 -0.7 10.751452321360803 9.853647036884354 34.89390554689758 2 2 -2
126 36 3 -0.7 3.483322001797455 10.61873187036105 34.48383220440762 -1 2 1
486 138 3 -0.7 7.211530800562086 3.489506710914544 31.819180439043446 4 -5 -2
287 82 4 0.435 2.024739027965322 7.244682577409436 30.612463141060623 -1 -1 4
338 96 1 0.435 9.615068648140744 8.786892707521051 34.236696648798954 -6 -2 4
407 116 7 -0.7 9.647951858268579 11.070562667537331 40.40736868857949 -1 2 -6
2198 684 2 0.265 7.48466530913031 10.903591963347594 36.54579051864309 -3 -1 2
2445 766 3 -0.7 6.239666578408177 7.572400261578053 39.99349615372306 -1 4 -3
2479 777 1 0.435 2.613609034600599 2.823241237905328 37.51351017622507 0 0 -7
127 36 1 0.435 4.134907404336812 9.981022151356445 34.77604568452115 -1 2 1
2579 811 2 0.265 6.457032928463867 8.906862156439644 31.508399595330562 4 -1 1
1295 383 2 0.265 5.101887823867438 3.331303262918924 28.704411438987382 -1 0 0
2581 811 1 0.435 7.336896065073203 8.74215268092545 33.29971307690342 4 -1 1
487 138 1 0.435 6.484288815855659 3.490886435203126 31.20557567131101 4 -5 -2
337 96 3 -0.7 9.036932584072796 8.179052635735758 33.78371288599979 -6 -2 4
1361 405 2 0.265 7.979241736191813 6.391114663817147 28.749092417981807 0 0 3
2244 699 3 -0.7 4.611273042038894 3.074886322910007 37.409695388001026 4 2 -2
2903 919 2 0.265 6.4832935533889655 10.83353767646966 41.37426803114571 2 -2 1
285 82 5 0.265 1.3227807586362883 8.037998514530749 32.316120647627216 -1 -1 4
571 163 4 0.435 3.738835008814639 10.86046736230681 32.659005746835405 -1 7 -2
1362 405 3 -0.7 9.258812828576453 7.020333892706669 28.739821463635383 0 0 3
570 163 7 -0.7 3.801896076444597 11.201478827165113 31.739929280204446 -1 7 -2
572 163 6 0 2.375373906006401 11.070068321908847 29.82648903014823 -1 7 -2
1725 526 3 -0.7 8.505409860794304 20.783453862329115 9.282673007644082 0 2 -2
2239 697 1 0.435 5.340288709130118 17.692309096764607 3.80341268048572 0 -1 4
1899 584 3 -0.7 8.509764499440596 19.635716539485347 14.223659417115668 2 4 -4
1637 497 2 0.265 11.142528951815596 13.732294630086782 5.768821793189136 0 -2 0
2158 670 1 0.435 3.4555290234686473 16.235136742099733 3.485715268937992 -1 3 0
2381 745 2 0.265 10.46782271996289 17.831275776799426 9.593762523094417 1 1 0
2383 745 1 0.435 10.307889699046301 18.75441212759394 7.907595325221318 1 1 0
1686 513 3 -0.7 0.7941378580736769 11.868743980064464 9.47354828023753 -1 -1 0
922 261 5 0.265 2.265983718204228 14.976164891427526 14.237769043011575 -4 1 -1
925 261 6 0 3.5088220821535523 14.308091259932333 13.57682101633714 -4 1 -1
970 274 1 0.435 6.6014649245266295 16.30800460355144 5.179800911341319 -4 -1 -5
1142 332 2 0.265 6.7036389569805905 18.09132964768185 7.660529490274828 -3 -1 -5
1998 617 3 -0.7 8.62997288627671 14.073391543937419 9.782537691581194 3 -1 1
2509 787 1 0.435 5.132855437707297 17.828212448070897 13.104060546624611 -3 2 -4
1519 457 1 0.435 7.674970227872587 12.42997549667031 6.613650273323844 0 -1 5
2508 787 3 -0.7 5.452846865337767 17.83647304452231 12.216571721954224 -3 2 -4
1331 395 2 0.265 2.80098442502253 16.575739821052828 10.728921272783756 0 0 7
1685 513 2 0.265 0.6326860878735872 12.974715160503159 10.41179057478322 -1 -1 0
2507 787 2 0.265 5.397753547185258 19.211302133808026 11.941784916003334 -3 2 -4
191 55 1 0.435 4.030333194057133 15.996518377600925 8.442439901252968 5 4 3
1486 446 1 0.435 6.3978526491503755 13.614703602408126 4.769229861304842 2 0 0
189 55 2 0.265 4.515482194720418 14.240692608299833 7.587683306631347 5 4 3
1518 457 3 -0.7 7.998918805667902 12.425377887507876 7.523353589632286 0 -1 5
2191 681 1 0.435 1.2857619674434657 15.451812924140894 3.0801075978017898 6 1 0
2382 745 3 -0.7 9.772262111758593 18.670728739060507 8.664972810707912 1 1 0
1997 617 2 0.265 7.734883688276855 15.192138981233976 9.87102986381896 3 -1 1
1485 446 3 -0.7 6.399296379650217 12.785852363418806 5.294011025161918 2 0 0
155 44 6 0 4.322747929480952 20.683468984204254 8.366968291263365 0 -1 1
1744 532 1 0.435 11.052822186126646 18.82042307117 1.6972959012361368 -1 1 2
1898 584 2 0.265 8.929498962129852 19.541154134114723 12.861656787212484 2 4 -4
1333 395 1 0.435 4.750428507465438 16.925854106445705 10.671016256165654 0 0 7
190 55 3 -0.7 4.2976197183746 15.662320843155296 7.572968164065398 5 4 3
1144 332 1 0.435 5.70249816448077 16.4620898601136 7.101048454335623 -3 -1 -5
2157 670 3 -0.7 3.1829637409159326 15.327798245362155 3.193090621190523 -1 3 0
1484 446 2 0.265 5.99048566089221 11.691999763546121 4.471666255744675 2 0 0
1143 332 3 -0.7 6.322074531518889 17.054275731920935 6.680860028547145 -3 -1 -5
1743 532 3 -0.7 10.925791210274037 19.26722010474379 2.5191658528561707 -1 1 2
1332 395 3 -0.7 4.070235254656456 16.464181405686794 10.136627255714549 0 0 7
1999 617 1 0.435 8.272193631703395 13.43536065902401 9.130853852738731 3 -1 1
968 274 2 0.265 7.6111755437603605 16.17702857863147 3.436967895420495 -4 -1 -5
969 274 3 -0.7 6.551296107548388 15.876408438171671 4.333800559952319 -4 -1 -5
1900 584 1 0.435 8.094017106003479 20.467202862890165 14.426502156383885 2 4 -4
1240 364 1 0.435 10.501263162191101 13.487542242180782 9.7015247811483 -1 5 1
195 56 6 0 7.825190058836865 20.98438137241354 5.3055219152247215 -1 2 -1
2238 697 3 -0.7 4.414194417300065 17.70886442796073 3.5175464121718085 0 -1 4
1120 324 1 0.435 10.651254381004573 12.3397866440887 2.832928362874303 -4 -2 3
2156 670 2 0.265 3.3811690167485944 14.530539543081165 4.312235647544583 -1 3 0
2237 697 2 0.265 3.934998728125844 18.963679111058145 3.863075732042785 0 -1 4
2840 898 2 0.265 9.557699604679186 14.485509264851451 13.282449757948612 3 -1 2
1742 532 2 0.265 10.792493576505054 18.262538033258764 3.5743819092375135 -1 1 2
2841 898 3 -0.7 9.528457645442824 14.520418561496268 14.72187998620784 3 -1 2
556 159 2 0.265 1.0489425564667032 16.5027652154994 6.37703962681276 -1 5 4
1726 526 1 0.435 8.933350770433819 19.997404419341343 8.980173118651368 0 2 -2
1687 513 1 0.435 1.674550400662452 11.544799262045089 9.645325690086013 -1 -1 0
1968 607 3 -0.7 4.156308868372394 17.966427992932264 14.547372339503005 2 -2 2
1239 364 3 -0.7 11.169475254178034 12.921126268664965 9.372562717474292 -1 5 1
1119 324 3 -0.7 10.68042987861933 11.392004673367556 2.9480156855575954 -4 -2 3
1669 507 1 0.435 4.799272017148281 13.867134477749195 16.105009769970685 1 -2 -3
715 203 5 0.265 10.77899233244592 19.361812705014827 26.347052086317532 0 4 2
370 105 1 0.435 7.711984245158006 17.240156826638156 26.25138837813791 -1 -4 4
84 24 1 0.435 8.460266325210622 18.366776367277843 15.388877608026386 2 -4 4
2056 636 1 0.435 0.9201103140091291 18.260647947415485 18.45677007668034 -1 1 4
3034 962 1 0.435 9.447419729183665 18.285258334662295 17.768953195677547 0 -1 1
3103 985 1 0.435 8.307634601344521 19.55517787461602 19.216795351562464 1 2 0
887 250 4 0.435 5.246569728456533 16.564316558764183 21.402807619169366 5 1 2
574 164 3 -0.7 4.781767528487048 15.0988107949976 27.70461632622621 -2 -3 -7
1374 409 3 -0.7 9.00903710676077 17.134386936677902 22.897641866844495 -3 -2 2
924 261 4 0.435 1.8249046639335202 16.07043363713485 15.75142931145761 -4 1 -1
885 250 5 0.265 5.247705476117185 17.501957275115135 19.746048392767776 5 1 2
573 164 2 0.265 4.633999150860223 14.312575586062966 26.550098497794156 -2 -3 -7
429 122 4 0.435 1.9826401789392454 18.06428381098415 24.29147014227588 -1 -1 7
2055 636 3 -0.7 0.7958394043940651 17.349633567058266 18.757384412812648 -1 1 4
965 273 7 -0.7 6.7261717760334285 16.91206278910166 27.99381293038413 2 5 -5
1404 419 3 -0.7 3.2486858568936654 14.243890261786872 22.539601148610792 4 2 -1
1668 507 3 -0.7 4.532300301156989 13.524699453209873 16.9424474945185 1 -2 -3
1373 409 2 0.265 8.303239939984826 18.19479598967465 22.180897482053812 -3 -2 2
717 203 4 0.435 10.41990097675069 20.94570465689207 27.38961644948107 0 4 2
428 122 7 -0.7 1.1064928563898528 18.25355602169707 24.690585556020245 -1 -1 7
2911 921 1 0.435 4.056007242716573 17.814014112743322 22.838684028851294 7 0 -4
1140 331 3 -0.7 5.811462836755179 15.066229830612881 21.90049776473283 1 -3 -5
923 261 7 -0.7 2.5830439853490543 15.941573368613819 15.2053404848177 -4 1 -1
886 250 7 -0.7 4.763357557242932 17.307828686542926 21.05509857820942 5 1 2
1403 419 2 0.265 1.9931773026659434 14.868049298583013 22.84114656461472 4 2 -1
1375 409 1 0.435 8.678602674619379 17.00703705471631 23.78573322978382 -3 -2 2
1608 487 3 -0.7 5.411386461672051 20.976521459707435 25.34036259675485 4 0 -1
1328 394 2 0.265 1.10127106659558 13.619020590272795 18.616414464265723 1 4 3
3102 985 3 -0.7 7.766208895562703 20.305407546474363 19.178545963919493 1 2 0
317 91 5 0.265 1.0379311959059951 15.05910109718685 27.78541942880836 4 2 -2
1139 331 2 0.265 6.796874432479275 14.865097160438458 22.916920041629467 1 -3 -5
427 122 5 0.265 1.4195160993522313 18.923264966877966 25.90603668378547 -1 -1 7
1329 394 3 -0.7 1.9765745545070719 12.491997458559462 18.523534911074854 1 4 3
2658 837 3 -0.7 10.52296149509765 15.102015923511283 21.8939738034023 -5 0 4
2909 921 2 0.265 4.5191385562736315 17.581402403841818 24.64664464322431 7 0 -4
3032 962 2 0.265 10.107216385294663 17.000844435593542 18.99243535815453 0 -1 1
2657 837 2 0.265 9.595251586035005 14.328589442548957 21.15588998179889 -5 0 4
1992 615 3 -0.7 8.405397790376075 12.433727703388856 25.070625755071728 7 0 -4
1967 607 2 0.265 3.660051770449663 19.095099882901195 15.259819077970091 2 -2 2
1991 615 2 0.265 9.719066090189145 11.887250421669878 25.24852010783454 7 0 -4
1141 331 1 0.435 4.990741001692308 14.718523722576828 22.28283226491834 1 -3 -5
1609 487 1 0.435 6.015965584423405 21.109161902362114 24.628633486773285 4 0 -1
318 91 7 -0.7 2.2437487645967646 15.671306774867377 28.29284989216114 4 2 -2
83 24 3 -0.7 8.45645864632542 17.935334592615934 16.267068968268674 2 -4 4
2910 921 3 -0.7 3.6462378435421807 18.087966227960383 23.65884027165106 7 0 -4
2659 837 1 0.435 10.007352901251332 15.860782869413276 22.207132908518687 -5 0 4
1607 487 2 0.265 6.090358481075927 20.941455897326197 26.607980976156128 4 0 -1
1330 394 1 0.435 2.8046704822262423 12.907393984561983 18.239100897831484 1 4 3
575 164 1 0.435 3.9050181054481117 15.40819269879095 27.91589139998743 -2 -3 -7
3033 962 3 -0.7 10.006657500500122 18.366586151915254 18.577966536996225 0 -1 1
888 250 6 0 4.300462478379454 18.377146947641943 18.940587055606443 5 1 2
1671 508 3 -0.7 1.1980663722732983 19.78227085682114 17.773206517872275 -3 8 3
1993 615 1 0.435 8.1060257551338 12.51823028082241 25.978680336482306 7 0 -4
320 91 6 0 1.181941103474085 13.56144526008163 27.877168849829427 4 2 -2
966 273 4 0.435 6.049022106206712 16.199654977836374 28.070286863203275 2 5 -5
369 105 3 -0.7 8.336400228243125 16.968871388593843 25.603538705889775 -1 -4 4
2842 898 1 0.435 9.438521472559515 15.453661087953114 14.890937006890178 3 -1 2
368 105 2 0.265 9.170297099484987 16.00206720443134 26.260938763422015 -1 -4 4
549 157 2 0.265 3.3227255023838493 20.678234997455753 22.107041478507643 -1 1 0
2054 636 2 0.265 0.7339826873592695 17.35903894585833 20.197895973982416 -1 1 4
3101 985 2 0.265 8.40767890335681 21.139128275831816 18.23872266065312 1 2 0
1667 507 2 0.265 5.446009406540023 13.851195017360185 17.96157703185742 1 -2 -3
1672 508 1 0.435 1.9912676431933805 20.3801116550356 17.68526747753398 -3 8 3
872 246 1 0.435 4.497167733634928 11.631543444319378 23.98660379109688 0 -5 -1
718 203 6 0 9.919266604321821 19.97114045526844 25.252746118826458 0 4 2
474 135 7 -0.7 7.888955631060949 11.992293742828851 27.81098926820123 -5 -2 -2
1405 419 1 0.435 3.1823813918632573 13.316149067614901 22.667835043609013 4 2 -1
871 246 3 -0.7 3.5775657091314197 11.857045099458517 23.930884480749853 0 -5 -1
82 24 2 0.265 7.3424878054577025 17.031578610165166 16.365036101805664 2 -4 4
2443 765 1 0.435 6.958026421393973 11.887238081705725 24.236378327411433 3 2 -3
1969 607 1 0.435 3.7311877969433787 17.23999322344278 14.925276587067243 2 -2 2
2776 876 1 0.435 11.152340854498185 19.336184601971958 19.396816919652412 -1 -2 1
2015 623 2 0.265 7.0123717132211585 21.74166428630182 22.193339579208892 4 5 2
2442 765 3 -0.7 6.16156222891316 11.41460223200805 24.00537014864987 3 2 -3
716 203 7 -0.7 11.19902691278941 20.324167922457328 27.287182236533553 0 4 2
125 36 2 0.265 3.488182414048539 11.612250485470232 35.48589653218386 -1 2 1
2557 803 1 0.435 5.1657628891298115 12.332011695700514 32.252286122757255 6 -1 -4
453 129 2 0.265 6.727435019257735 14.229297935474733 35.495495501879354 0 -2 -3
1783 545 1 0.435 4.86273393637369 21.526063165881066 39.45775464784427 2 0 3
2667 840 3 -0.7 7.286715251019297 19.761565361309717 40.703041099642746 0 0 4
144 41 6 0 3.488845709937872 12.97174036213563 39.61587279132339 -3 -3 -3
2971 941 1 0.435 8.796560160597318 18.772798741176338 40.717714109400376 5 -4 -2
454 129 3 -0.7 6.67962396639357 14.926400416429097 36.75291440330707 0 -2 -3
2523 792 3 -0.7 3.076771505114021 16.745541505795003 39.916497753174575 4 2 -1
1393 415 1 0.435 2.7210302175968684 16.58150315796127 35.77230602525842 1 3 1
1279 377 1 0.435 4.16302294233474 20.000854665834424 31.39391515518918 2 2 -4
455 129 1 0.435 7.487182452135546 15.450846540852936 36.6708546159258 0 -2 -3
2666 840 2 0.265 6.232416900691043 18.79889876830048 40.87887506075252 0 0 4
594 170 3 -0.7 10.954788845048487 16.76088498627022 35.175079458428634 -3 -1 -4
2524 792 1 0.435 3.6332008975573875 15.997803313809952 39.6373244819125 4 2 -1
2876 910 2 0.265 2.254356911499941 16.696083566114353 31.732918518774202 2 6 -1
2556 803 3 -0.7 5.5354741972003385 12.924352735884469 32.914559237652476 6 -1 -4
1657 503 1 0.435 5.958515560428491 20.57037808052469 32.442516636760374 5 -7 2
2545 799 1 0.435 2.734291760830934 20.398082488124885 38.822000229719194 0 2 -4
1391 415 2 0.265 4.323488709080847 17.56836386681728 36.08539067954534 1 3 1
282 81 2 0.265 8.786887956290245 21.0633870242048 30.173999125013047 -1 0 -2
2248 700 1 0.435 1.1396905697513253 15.243227780796053 35.23573266388434 0 -1 3
1278 377 3 -0.7 3.475487935952127 19.86760828418695 30.73919013980154 2 2 -4
1085 313 2 0.265 8.466516474840045 11.456080288064523 32.963933817112384 -4 2 0
1277 377 2 0.265 3.82714202312093 20.389127953963207 29.437718393243884 2 2 -4
142 41 7 -0.7 4.785130537228977 14.677669749831312 38.712543510997854 -3 -3 -3
1392 415 3 -0.7 3.0441296587487203 17.401563346424297 35.493906896268285 1 3 1
2420 758 2 0.265 7.764019276561748 17.947916316187495 37.14962566746836 1 -4 1
143 41 4 0.435 5.47982095967868 15.03857436443244 38.16178351664728 -3 -3 -3
1782 545 3 -0.7 5.766769356928592 21.591044579749312 39.77148199536331 2 0 3
593 170 2 0.265 10.651654034083931 17.276415376624474 33.87570516423943 -3 -1 -4
2192 682 2 0.265 0.8313200997714457 12.291696086771038 42.101123652836904 -2 4 -2
2555 803 2 0.265 4.948534110174969 14.164820223320248 32.46240379461153 6 -1 -4
2522 792 2 0.265 2.884747265212266 16.702571153997386 41.3403415281718 4 2 -1
2422 758 1 0.435 9.275271728954458 17.420951390194272 36.10366865309063 1 -4 1
2663 839 2 0.265 0.6585498132881399 18.419301852757375 38.2514507652917 -3 -1 1
2878 910 1 0.435 2.654307954712554 18.1625212531004 30.746425639775016 2 6 -1
2969 941 2 0.265 9.92892714363734 17.42437984189995 39.82974471101977 5 -4 -2
319 91 4 0.435 2.171130170578426 16.065861055846867 29.18764375603981 4 2 -2
473 135 5 0.265 6.834289793382045 12.054173499149867 28.758698737659056 -5 -2 -2
1086 313 3 -0.7 9.779964872070739 11.865576658837595 33.31527101878528 -4 2 0
2665 839 1 0.435 2.0075242154039765 18.439697618771355 39.63217090291844 -3 -1 1
2970 941 3 -0.7 9.577818031679973 18.2558621517616 40.943743219332 5 -4 -2
1655 503 2 0.265 6.618803311178958 19.009973370577576 33.35679542846974 5 -7 2
1656 503 3 -0.7 6.00194256054587 19.647045200676168 32.250379928145875 5 -7 2
2877 910 3 -0.7 2.536691728806524 17.26586582645243 30.484146274146504 2 6 -1
964 273 5 0.265 6.754490141904953 17.63069751830945 29.237040180031162 2 5 -5
2421 758 3 -0.7 8.649472423960916 16.961742633811394 36.64756855559155 1 -4 1
283 81 3 -0.7 9.698094087989784 21.73661092184943 29.27116832400407 -1 0 -2