LAMMPS data file via write_data, version 29 Aug 2024, timestep = 11000000, units = real

3229 atoms
7 atom types
2229 bonds
5 bond types
1229 angles
3 angle types
687 dihedrals
3 dihedral types

0.4563320224143155 43.15031797759593 xlo xhi
0.7920459154508137 42.749654084511334 ylo yhi
0.8860815912435847 42.356728408710154 zlo zhi

Masses

1 1.008
2 15.011
3 15.999
4 1.008
5 14.011
6 15.011
7 15.999

Pair Coeffs # lj/cut/coul/long

1 0 0.4
2 0.195 3.75
3 0.185 3.02
4 0 0.4
5 0.0914 3.95
6 0.195 3.75
7 0.185 3.02

Bond Coeffs # harmonic

1 1000 1.43
2 1000 0.945
3 1000 1.54
4 1000 1.43
5 1000 0.945

Angle Coeffs # harmonic

1 55.045 108.5
2 55.0452 108.5
3 50.0772 109.47

Dihedral Coeffs # fourier

1 3 0.416953 1 0 -0.0579664 2 180 0.373453 3 0
2 3 0 1 0 0 2 180 0 3 0
3 3 0 1 0 0 2 180 0 3 0

Atoms # full

2971 914 1 0.435 3.273608176242081 6.854545264279524 4.883176567706091 0 -1 -1
1877 550 2 0.265 5.885782287698371 3.081477238891153 4.810856791548751 -5 2 2
199 55 6 0 4.232025667904868 7.212921774224585 1.401248307433561 -3 -2 -5
1740 504 3 -0.7 7.8515012739881245 5.033772607169612 2.846292938350846 -4 -2 0
1134 322 4 0.435 7.340698973116656 4.527297392306809 6.486920992311 -2 2 1
3040 937 1 0.435 8.783038884022448 6.527845580189166 7.072333115758227 0 1 -1
2970 914 3 -0.7 3.827767830774451 7.657776887945112 5.033987205658816 0 -1 -1
2051 608 2 0.265 8.310316260851305 8.80277913150292 3.7603550097215295 -1 -2 1
1659 477 3 -0.7 2.465950604725199 5.263556551964004 7.550391954623639 1 -9 3
2723 832 2 0.265 4.019769571070299 10.899688555163515 3.3642859917248753 1 -1 1
2076 616 3 -0.7 3.814775276897262 11.188731438762359 7.428660890010625 -2 -2 3
152 43 4 0.435 5.275685298138768 10.32995889807033 8.459126260872772 0 -3 2
2902 891 1 0.435 0.46445649369358155 6.170824359279167 4.4142823368927555 4 -4 0
1660 477 1 0.435 1.9293542386149967 5.470792391619366 8.313442835103364 1 -9 3
3189 987 3 -0.7 4.5366797286606255 10.250947203313581 12.929722326717116 1 3 -1
1680 484 3 -0.7 2.2776519936112525 9.614153685492466 5.873283657718231 1 -2 -4
1164 330 4 0.435 7.34525626943627 11.01998583123646 9.041144006754298 -3 -5 -2
81 24 4 0.435 8.083014709949001 2.154624451236702 12.988931952309578 1 -1 2
153 43 6 0 7.188975506631086 7.865222387616479 9.171622090622959 0 -3 2
1681 484 1 0.435 2.916922190535088 8.976414756298274 5.490487329370868 1 -2 -4
1129 321 2 0.265 8.25339485333354 6.68513658645637 12.624309908335029 1 2 0
930 265 3 -0.7 2.0886951078532965 5.588757391882717 4.7781228629908075 2 1 -1
2052 608 3 -0.7 8.325015130462479 7.454462933318514 4.252917119563862 -1 -2 1
3186 986 3 -0.7 0.7385240335930539 6.590767991612014 9.306903645812339 3 5 0
1135 322 6 0 8.622630188751165 3.203075420832866 8.601851965724174 -2 2 1
3038 937 2 0.265 10.404940799799988 7.347847522543535 7.458182824034134 0 1 -1
1133 322 7 -0.7 7.811176955613788 5.008981841776492 7.135066096288718 -2 2 1
3188 987 2 0.265 5.277965821169166 9.217065391859418 12.295291612023119 1 3 -1
3190 987 1 0.435 4.692395960414055 10.196053766287577 13.86231729498586 1 3 -1
1131 321 1 0.435 10.039554068379475 6.065681191199723 12.404024192568514 1 2 0
2969 914 2 0.265 5.207444701582169 7.300338303902018 5.067279634074533 0 -1 -1
3039 937 3 -0.7 9.234056817832935 7.255843237516574 6.654065803811351 0 1 -1
579 165 4 0.435 6.098427938525418 2.792966424740425 12.208071151411081 1 -2 -3
929 265 2 0.265 2.586958433807401 4.414702585139759 4.145571315402718 2 1 -1
1132 322 5 0.265 7.596962380429905 4.301474780201812 8.340005769262273 -2 2 1
1116 317 5 0.265 10.74055152028735 2.9066166500676105 12.002077129355312 -2 1 1
1130 321 3 -0.7 9.20100455071665 5.633517497542202 12.431615657359462 1 2 0
1878 550 3 -0.7 6.784163950843806 4.217062924929385 4.926473542146107 -5 2 2
2789 854 2 0.265 0.4868464269588864 5.571200457811667 13.065721824438901 -4 3 3
931 265 1 0.435 2.217768258374144 5.5375451909762665 5.725452749255046 2 1 -1
150 43 5 0.265 6.3344977881721665 8.744079710182568 8.258515412554154 0 -3 2
2086 619 1 0.435 0.7082715225109093 10.99219964007134 14.19463238938302 8 9 0
1294 369 2 0.265 1.7106950299573094 9.562294531859084 10.88471858806333 1 4 4
577 165 5 0.265 4.482908194646295 3.7454385486523796 12.441489443557336 1 -2 -3
80 24 7 -0.7 7.263624279163239 1.669851110784123 13.17870729612353 1 -1 2
1658 477 2 0.265 3.3474971045501642 4.200220692045025 7.8660262257381435 1 -9 3
2077 616 1 0.435 3.2264697710467476 10.731374700785807 6.852263871534396 -2 -2 3
2053 608 1 0.435 8.754327624678 7.506261737039785 5.073202155446035 -1 -2 1
578 165 7 -0.7 5.637804475445451 3.4010091612415594 11.674138391537799 1 -2 -3
1879 550 1 0.435 6.973829849483263 4.505721919628434 4.085283522858064 -5 2 2
151 43 7 -0.7 5.9547578750780445 9.928699217595959 8.991956029818434 0 -3 2
2790 854 3 -0.7 0.5212584645004134 5.116638603059424 14.425261432774622 -4 3 3
1117 317 7 -0.7 9.477846412762835 2.871321669408718 12.608627392370595 -2 1 1
1679 484 2 0.265 1.1200625629835068 8.866901464528759 6.370678949465326 1 -2 -4
580 165 6 0 3.8872998588586047 5.10889361527762 11.969107632627965 1 -2 -3
117 34 6 0 8.52474473467357 1.1197046596377125 3.8209462291675402 4 2 -3
1741 504 1 0.435 8.092624332319907 5.939349264253036 3.0107379969127406 -4 -2 0
1118 317 4 0.435 9.202427965236417 3.788886162388591 12.77839055372508 -2 1 1
1739 504 2 0.265 8.426323678272542 4.482650811951592 1.6369152284602273 -4 -2 0
2525 766 2 0.265 10.696291167763826 3.8698572420630457 4.5122163098715395 5 1 -2
2648 807 2 0.265 1.2571623620971049 10.7370987369964 0.9629379678348584 4 -2 -2
2485 752 1 0.435 2.8989262640308757 11.240869089608148 12.857301014587593 0 0 -1
1336 380 4 0.435 8.487365948066198 2.4623923848974343 24.381146030440142 -1 -3 1
1337 380 6 0 10.666152432354144 1.5237710227724288 26.017420773192356 -1 -3 1
1426 405 3 -0.7 7.26729353644638 1.2354255602314188 24.279901952098797 1 1 1
2012 595 2 0.265 4.499875300389553 10.672619943720655 16.624861112857417 -2 4 -1
3093 955 3 -0.7 1.544836303184492 3.400139961059606 23.76985893821224 2 5 -3
908 258 4 0.435 10.268338520673243 7.208894770678093 27.933496042606727 1 5 3
1120 318 2 0.265 3.381801014579326 8.686904955498377 28.245359064418864 -3 0 -8
528 151 7 -0.7 10.103139366127303 1.4724387025899959 18.184288582648225 -1 -3 -5
2835 869 3 -0.7 8.237474839629943 3.4205934911883524 17.83637325725092 1 1 5
1427 405 1 0.435 6.5987817559287425 1.2765461401019433 24.99716530038044 1 1 1
2767 846 1 0.435 8.790732119203545 4.6177774051308464 24.123544554090515 2 -3 0
2766 846 3 -0.7 8.647450032280759 5.550126916568877 24.300336356782296 2 -3 0
1553 442 2 0.265 1.4009804713276606 5.955413075641762 17.283391849481397 -3 -5 -1
3094 955 1 0.435 0.9270525236234983 3.475532378796603 24.550591195478596 2 5 -3
1032 292 6 0 1.258052930125285 8.343303474877507 25.540702589722684 5 9 -2
397 112 6 0 5.6190209852015345 3.90855545050673 26.673702954724416 5 0 2
2765 846 2 0.265 8.045381662065463 6.027777953564484 23.112400806887944 2 -3 0
529 151 4 0.435 11.01860386075161 1.5288689863832934 18.46227935112859 -1 -3 -5
1554 442 3 -0.7 1.797359037769526 6.309800750542613 18.618663139335503 -3 -5 -1
2023 598 1 0.435 8.962617478410797 6.2809679772620095 25.800111724113822 -2 2 5
2081 618 2 0.265 4.970266860523593 4.795802133475656 19.485862485056916 1 6 0
1335 380 7 -0.7 9.280309754768611 2.955570779490943 24.38170539694736 -1 -3 1
1334 380 5 0.265 9.840674716111545 2.779174859707247 25.72733256995551 -1 -3 1
1977 583 3 -0.7 8.672322394410008 4.636237565667994 20.178125133503833 0 3 4
2786 853 2 0.265 7.442288682751965 7.013358656899423 18.080708219415644 1 8 3
278 78 1 0.435 10.751467990128827 9.757045964883021 21.647050169575518 3 0 1
2787 853 3 -0.7 7.408722982604794 7.089283636666804 16.644542442725935 1 8 3
2014 595 1 0.435 5.240787333150967 9.218212973277696 15.612366595392102 -2 4 -1
2144 639 2 0.265 2.8452794823258634 2.9871402803392932 16.193780372284827 -2 4 1
2834 869 2 0.265 7.655735726986147 3.496733163710288 16.506769236962445 1 1 5
3092 955 2 0.265 2.0571303379549595 2.0695239135235655 23.61173130196395 2 5 -3
2021 598 2 0.265 7.971918873897888 7.745242272706959 26.799068664076092 -2 2 5
3194 989 2 0.265 6.1983912922995295 10.742004022183282 20.777532885761982 -3 1 -2
2013 595 3 -0.7 5.385889451723533 10.18404476250623 15.610515465295041 -2 4 -1
394 112 5 0.265 4.725835508243888 2.6450054363028017 26.61094646675107 5 0 2
2981 918 2 0.265 1.972778586272992 6.35041344322257 22.31455219297997 3 4 -2
1935 569 3 -0.7 5.119522642746802 7.677845280001288 15.507864674174717 2 3 -1
276 78 2 0.265 9.778547513519003 9.7122708995062 23.352535134575525 3 0 1
395 112 7 -0.7 5.4539735728738385 1.4526088047679853 26.25053311966265 5 0 2
2836 869 1 0.435 8.854700731979406 2.6675872709497623 17.892641476311756 1 1 5
1253 357 2 0.265 6.434410459418925 10.709434609946475 24.620322289636306 0 1 5
1936 569 1 0.435 5.8244260305486275 7.254366736637648 15.952954109596588 2 3 -1
2982 918 3 -0.7 2.682947077357452 5.118074339467663 22.18126525206889 3 4 -2
2788 853 1 0.435 8.107083970972003 7.65156597873896 16.3599213775758 1 8 3
2084 619 2 0.265 0.7036088757526809 9.302968193623833 15.243452107313733 8 9 0
2082 618 3 -0.7 3.6088582522106885 4.745704199323202 19.85692135496978 1 6 0
2983 918 1 0.435 2.2143787141062354 4.413518195385644 22.605484573459258 3 4 -2
1978 583 1 0.435 8.63002451618838 4.36034565265587 19.2895912342584 0 3 4
1555 442 1 0.435 2.4734673191587695 5.7284358152064065 18.944921495148044 -3 -5 -1
396 112 4 0.435 5.927879928597854 1.188603662388218 27.014486665785668 5 0 2
1425 405 2 0.265 6.541985789673419 1.162688345687766 23.070655467233784 1 1 1
2083 618 1 0.435 3.4573469091483866 4.904251342238536 20.78353952816827 1 6 0
2022 598 3 -0.7 9.0340191451298 6.743880983228769 26.655716349309312 -2 2 5
799 227 3 -0.7 9.495935149168455 8.751516934373683 15.456998396189345 3 -3 0
89 26 4 0.435 6.953055615218439 10.663347890767344 15.750111394350707 -2 3 1
1934 569 2 0.265 4.014416137246137 6.746618424409255 15.439028708793654 2 3 -1
2591 788 2 0.265 0.6887321628862573 2.4264524712652102 26.93229876166727 6 -1 1
798 227 2 0.265 10.759747134763359 8.95392465274476 14.775743192330161 3 -3 0
1964 579 2 0.265 0.8093098217477337 9.546683847066218 19.144663933857508 -2 1 -3
2506 759 1 0.435 10.23935632929707 10.432122226841397 19.229985979914773 1 5 -3
2268 680 3 -0.7 9.059195017165127 11.2615155440294 18.04435943398168 -3 7 -1
1966 579 1 0.435 0.811132075836828 7.649093548651489 18.855404789033365 -2 1 -3
1457 413 6 0 5.203657761364054 0.8702192981508897 18.705310322655304 3 -1 1
2146 639 1 0.435 1.6374963997163847 1.6343992795440077 16.869711406026994 -2 4 1
530 151 6 0 10.868189367897704 1.6181833039770956 15.904385349553088 -1 -3 -5
1976 583 2 0.265 10.009293434012138 4.428155445906507 20.59903188855837 0 3 4
277 78 3 -0.7 10.947141852692848 9.74936694170573 22.565000177787468 3 0 1
2505 759 3 -0.7 10.771171710419095 9.954187116820718 19.843251320209863 1 5 -3
88 26 7 -0.7 7.857496233003532 10.984671943534812 15.753932534014195 -2 3 1
2145 639 3 -0.7 1.7709166798565352 2.0561389705515403 16.024371277092143 -2 4 1
1240 353 5 0.265 1.1568269580605661 1.7893275515760187 19.70008111852988 5 0 1
1241 353 7 -0.7 1.2123524821255196 0.9528702676324169 18.56596325241807 5 0 1
800 227 1 0.435 9.143821255694117 9.611591776490997 15.661012916101615 3 -3 0
547 156 1 0.435 0.5904952859015598 2.1851878937399585 14.998375746397775 3 0 3
907 258 7 -0.7 11.119551891205012 7.134766122478087 28.378957142190888 1 5 3
2269 680 1 0.435 8.696377259061087 11.264492037538748 17.166271343407807 -3 7 -1
2209 660 1 0.435 9.509676819945406 8.789944203247384 35.794976237718956 0 -4 0
69 21 4 0.435 6.034995050651183 6.219441377107147 40.546766489261486 0 2 0
3206 993 2 0.265 2.2319353604685874 8.153772747686599 35.635643066222954 -3 4 -3
3207 993 3 -0.7 3.651061937127428 8.076666647220652 35.37400204416821 -3 4 -3
498 142 7 -0.7 9.77414176927872 7.762889988638339 39.47497064007534 0 -2 1
1122 318 1 0.435 3.5366751428575705 8.869237583975826 30.150006702180978 -3 0 -8
2000 591 2 0.265 2.885078367637009 3.0358784698214563 42.121143697896116 1 6 0
2279 684 2 0.265 9.67168014901796 5.035849637972136 32.715489197908354 -5 3 -1
1722 498 3 -0.7 8.941008237297106 5.367243324780963 39.23753956339827 1 -2 1
2288 687 2 0.265 6.80363073544801 8.947310487836981 32.3213213870434 2 5 2
2207 660 2 0.265 8.186205739706693 7.392851078542674 35.399630068879645 0 -4 0
67 21 5 0.265 5.669076435498649 4.325980395867177 40.16200389470464 0 2 0
2659 810 1 0.435 4.4198394278789 10.072468726523015 37.70518979558467 1 7 5
3164 979 2 0.265 7.723371014282912 1.772482365323567 36.44956711210311 0 0 5
2495 756 2 0.265 4.001437449959052 6.323004165135867 32.66381523033333 -1 6 2
3198 990 3 -0.7 5.241979260346161 4.012110137358537 35.571773642053486 -2 -1 3
2501 758 2 0.265 1.7547266970925235 10.37806074026419 38.257261294923794 -5 3 -1
3197 990 2 0.265 4.642384264824377 4.598919717863705 36.721234385201996 -2 -1 3
1444 410 7 -0.7 1.183768873323754 3.5586573662287058 35.2674114604671 -1 -6 -1
3208 993 1 0.435 4.142512744075207 8.641137334477296 35.980501288781795 -3 4 -3
2502 758 3 -0.7 3.056242741077358 10.874575641602407 38.52003462231812 -5 3 -1
2966 913 2 0.265 10.392196771366184 1.5680011289009674 41.51825169234941 -2 1 -7
68 21 7 -0.7 6.516112722668847 5.397259781002298 40.630101598371894 0 2 0
2058 610 3 -0.7 2.4650021914437 6.397928193174837 40.44355691267177 1 1 -1
2280 684 3 -0.7 10.584680005819592 4.057540479119039 33.12230648961744 -5 3 -1
2657 810 2 0.265 6.2132662383816 10.109929069487608 37.00830944656079 1 7 5
198 55 4 0.435 3.978933844006363 7.234774497283701 40.22015970531065 -3 -2 -6
909 258 6 0 9.598122071705808 7.457048413538711 30.103048255649956 1 5 3
2208 660 3 -0.7 8.795166586773606 8.662170716020718 35.179772111855996 0 -4 0
975 278 5 0.265 6.660052745055647 2.3923740273483514 30.124151900661072 -3 -2 -1
2059 610 1 0.435 2.3391397234149753 5.681226186364037 41.06899494309722 1 1 -1
2206 659 1 0.435 8.466550460858505 1.9429589348958625 34.025456882268585 5 -2 -5
3199 990 1 0.435 4.964032652586115 4.4817939673829255 34.776110513427454 -2 -1 3
1721 498 2 0.265 9.321230917637868 4.140818809142715 38.67592858693874 1 -2 1
2771 848 2 0.265 0.8495838817120138 10.657680118307457 30.33262412661053 6 4 1
499 142 4 0.435 9.491503030569392 6.877195792120648 39.30451202637241 0 -2 1
2496 756 3 -0.7 4.345237279728021 5.98289454562785 33.984819259132365 -1 6 2
1446 410 6 0 2.605017531022895 2.8507309474155917 33.44650294896195 -1 -6 -1
1121 318 3 -0.7 3.9323391483807346 8.304325369128463 29.4978263729915 -3 0 -8
2446 739 1 0.435 10.84503581816958 8.14232129206692 38.17323771633738 -2 -4 3
906 258 5 0.265 11.017562072161043 7.785361710882364 29.656383344160737 1 5 3
2658 810 3 -0.7 4.882516852170391 9.617576149096653 36.988320747368306 1 7 5
1443 410 5 0.265 1.705923984431633 3.999731391232456 34.03410055596774 -1 -6 -1
3166 979 1 0.435 6.86433732846152 3.2752691578413744 35.358654067251194 0 0 5
2497 756 1 0.435 4.073942967685024 6.71397587738961 34.524200187184334 -1 6 2
978 278 6 0 5.903401364802913 1.570446279670755 31.187207218713723 -3 -2 -1
2289 687 3 -0.7 7.745701171734189 9.943700270411128 32.73197489253374 2 5 2
1723 498 1 0.435 8.028913492906092 5.303809470761365 39.48744058722043 1 -2 1
3165 979 3 -0.7 7.658779633339022 2.7186122083607005 35.37164491538141 0 0 5
497 142 5 0.265 8.656240044980667 8.294278655838502 40.259474411957825 0 -2 1
2772 848 3 -0.7 1.5112709680862506 9.687425065408126 31.13757204285861 6 4 1
2290 687 1 0.435 8.161848611389825 9.539906589804755 33.47762418349437 2 5 2
196 55 5 0.265 5.0540276428646225 8.048276485915633 41.80847654460126 -3 -2 -6
197 55 7 -0.7 4.851254225951381 7.504458539293146 40.491506538608334 -3 -2 -6
2205 659 3 -0.7 8.804825943995503 1.8446284638521693 33.13544297519563 5 -2 -5
270 76 4 0.435 1.6220493061592431 2.0481465887155403 35.65847506613909 -2 -6 0
2057 610 2 0.265 1.330748225104558 7.290123479681155 40.54142746714335 1 1 -1
70 21 6 0 6.636629775127789 3.160230999460571 40.39832096886242 0 2 0
2281 684 1 0.435 10.105632793438769 3.2414498194723786 33.19296052909232 -5 3 -1
500 142 6 0 9.012765104279481 9.570544343650777 40.95564359413099 0 -2 1
2001 591 3 -0.7 1.89859343636815 4.019797325368061 41.710169592535166 1 6 0
269 76 7 -0.7 1.6883582311353098 1.1310514879298772 35.77114119853117 -2 -6 0
2773 848 1 0.435 0.949003429159738 9.366893171004541 31.90707482874878 6 4 1
1445 410 4 0.435 0.9429316647145145 4.315396547155126 35.81052255218951 -1 -6 -1
785 223 5 0.265 10.80111835704813 3.813460873384025 29.243408034195202 3 -3 2
976 278 7 -0.7 6.554411878803819 1.582235593151589 28.96942890661383 -3 -2 -1
2002 591 1 0.435 1.0487935590834319 3.5963920569844077 41.53098769329833 1 6 0
2564 779 2 0.265 8.10240753906746 11.129803715195033 28.733615506752553 3 4 0
268 76 5 0.265 3.0247524925321465 0.8663168721930298 36.33298265076769 -2 -6 0
2493 755 3 -0.7 3.6188445694367712 15.84886232072248 6.903765358191785 0 0 3
1193 339 5 0.265 5.4804465507551985 13.30250781199181 10.488080663570075 -2 -1 3
1417 403 5 0.265 5.839496460583401 20.547389895676744 6.783415611964291 3 4 3
1195 339 4 0.435 7.155252044522843 12.571293829134493 11.047484069195527 -2 -1 3
1853 542 2 0.265 10.976347337149472 18.382484767396182 13.452273535475598 -7 4 0
90 26 6 0 9.268435165273663 12.335081042271101 14.44117065426039 -2 3 1
1165 330 6 0 9.903456226365865 11.71624403159026 10.460584326214937 -3 -5 -2
1420 403 6 0 6.59616144598419 20.129463087437987 5.497899043605582 3 4 3
2291 688 2 0.265 2.77983064642112 17.39983353451863 13.053914916686237 5 2 -2
1238 352 3 -0.7 2.2877775333768815 19.57654431277782 3.6131960805874574 0 -4 0
1239 352 1 0.435 2.917132136773841 19.40931831553785 2.9138203610223607 0 -4 0
2596 789 1 0.435 5.3930418261793225 14.185477225272697 4.817459901173485 -1 2 9
173 49 7 -0.7 0.7505647501569878 12.340652101611754 5.116622095155477 2 3 0
3154 975 1 0.435 9.454360130136633 16.98296500814466 5.904439900972907 1 4 1
2483 752 2 0.265 2.406962139090875 12.802585055968253 13.916247831352097 0 0 -1
1448 411 7 -0.7 4.245888745442427 18.974934542955662 1.4442815959717368 0 -2 0
2595 789 3 -0.7 5.098688831177335 15.086116986999144 4.902886083875229 -1 2 9
245 69 3 -0.7 9.973664526451284 13.822408632629923 5.173691596657013 -4 0 -2
457 130 7 -0.7 6.889728311585577 19.040060380221355 12.272442592567982 -1 -1 2
2069 614 2 0.265 9.568451754824682 21.617120322781727 13.292807886072195 0 0 1
2674 815 1 0.435 1.053176694348059 20.45266722930052 13.566031836669248 -4 2 4
2492 755 2 0.265 4.5321298134064625 15.990440729955882 7.984148733966533 0 0 3
2293 688 1 0.435 3.093851182303684 19.278429972789418 12.43926615559141 5 2 -2
1237 352 2 0.265 2.3389796915109997 18.426645872477465 4.486756199162841 0 -4 0
732 206 6 0 10.16080710736949 21.088189661107762 4.008644385597636 -1 2 3
3113 962 2 0.265 4.817519594946453 21.582807324073958 11.734609613969374 2 -2 -1
3115 962 1 0.435 5.295108573372559 19.886548624693816 12.371752847744593 2 -2 -1
1450 411 6 0 3.183478858113841 16.835034896483876 1.083671030867931 0 -2 0
2760 844 3 -0.7 6.466826555502304 12.536525815351897 4.862316997385518 3 2 3
2494 755 1 0.435 4.276442070862784 15.585664679755654 6.20629937814095 0 0 3
2 1 3 -0.7 8.816974500593666 11.92685519385627 3.877322901593241 3 0 -1
1876 549 1 0.435 2.8205351010949804 21.085669963971256 4.455992459011224 0 -5 -4
1 1 2 0.265 9.127998043595452 12.061000707449631 2.4824947235717105 3 0 -1
172 49 5 0.265 1.5697419284728 13.514383529012694 4.917930656647807 2 3 0
685 193 6 0 2.0086874522634064 19.525370367735587 9.527641772884795 0 -1 2
3 1 1 0.435 9.270889283410227 12.64797474603269 4.320169334063314 3 0 -1
2105 626 2 0.265 6.192324784740067 21.647123844820577 0.9561797183118365 1 -1 2
1854 542 3 -0.7 11.09146740197779 16.991709702066164 13.78897729520199 -7 4 0
2292 688 3 -0.7 2.3559008639510566 18.760705319177 12.825197987160728 5 2 -2
3114 962 3 -0.7 4.424933119550188 20.27679360909045 12.192304147496223 2 -2 -1
1194 339 7 -0.7 6.503195858576004 13.068735605444255 11.48701335934924 -2 -1 3
2761 844 1 0.435 7.24087171431091 12.191130819647263 4.446728929472716 3 2 3
459 130 6 0 7.357939721218521 18.262285491342585 9.966090018628156 -1 -1 2
2026 599 1 0.435 0.7299065498423433 20.27989235048036 3.545041446698531 1 2 5
1875 549 3 -0.7 3.5896610113858674 21.69241963099252 4.547740948099577 0 -5 -4
2484 752 3 -0.7 2.135432144313322 11.471552806840686 13.375473995923322 0 0 -1
458 130 4 0.435 7.486974433390913 19.643897190036054 12.724265646310773 -1 -1 2
175 49 6 0 0.8722119131052868 14.536434637226 3.9824999479356977 2 3 0
682 193 5 0.265 1.6642983996818927 20.943997383153928 9.896131504169398 0 -1 2
2594 789 2 0.265 6.117569991077994 15.657638764109437 4.112683959386847 -1 2 9
456 130 5 0.265 7.723315720837544 18.128548023477887 11.471684147872644 -1 -1 2
1196 339 6 0 4.459807141672733 14.3721696264177 10.886137590123116 -2 -1 3
2100 624 3 -0.7 10.902249767093593 18.086297465330514 5.101874759125624 -6 -4 -4
87 26 5 0.265 7.91075233345628 11.69767987567233 14.514312984990559 -2 3 1
730 206 7 -0.7 10.94669504090049 20.73561300518481 6.290023084029093 -1 2 3
3153 975 3 -0.7 9.115026450433025 16.114130793650258 6.081749735044454 1 4 1
3152 975 2 0.265 8.55217975667535 15.907139159073541 7.400514612879563 1 4 1
2724 832 3 -0.7 4.838745463364873 11.875685549298057 2.7196920200017383 1 -1 1
2101 624 1 0.435 11.08055938129366 18.974194938747672 5.4539687863275 -6 -4 -4
2071 614 1 0.435 8.136904915764742 20.893363974057724 14.429837070097138 0 0 1
1597 456 1 0.435 5.524535669780051 11.649606283571822 1.1099110192404615 2 6 4
246 69 1 0.435 9.675311479200793 14.741300022343388 5.293267734315284 -4 0 -2
2075 616 2 0.265 2.7336597607735857 11.737634940596157 8.254687708491161 -2 -2 3
2725 832 1 0.435 5.087113770986212 12.54010853168282 3.364342413291613 1 -1 1
2759 844 2 0.265 6.722876821452208 12.498007629982846 6.278530539346256 3 2 3
174 49 4 0.435 1.4022934408766419 11.65059766911208 5.098850584009315 2 3 0
729 206 5 0.265 9.948974731580657 21.387512154397204 5.538296444673528 -1 2 3
1163 330 7 -0.7 7.89570636427733 11.744700271172187 9.365114518320137 -3 -5 -2
2070 614 3 -0.7 8.501707845963612 20.68808833671239 13.563054794606849 0 0 1
1419 403 4 0.435 4.779550601335426 21.729923507822313 5.852529117026714 3 4 3
1162 330 5 0.265 9.260625385419058 11.282543676061156 9.140772652111254 -3 -5 -2
1449 411 4 0.435 5.0321220441318975 19.18277191515078 0.9158685286432302 0 -2 0
2400 724 3 -0.7 9.688102397575719 15.914478443897815 18.1774100847989 3 3 -1
2203 658 1 0.435 7.404552929014669 17.533065411063852 22.002411447431395 0 -3 3
1218 346 7 -0.7 4.332914310822285 13.938213520123197 27.59683308175372 -2 -3 0
2691 821 3 -0.7 0.6660983686028807 20.058362568840714 24.80012469766745 2 -3 -2
1537 437 3 -0.7 9.237863420506622 16.45784114953537 15.626582801082996 1 1 3
2419 730 1 0.435 6.506812937168795 16.021724932624664 20.97919246337489 -1 1 -4
1327 378 7 -0.7 3.2254284873323638 12.708395642429942 19.673146866938044 -1 -4 -4
1247 355 2 0.265 5.302374983603744 21.477619957273777 26.102447313885158 2 3 5
2750 841 2 0.265 7.98254698129739 15.178164356518703 26.18859174540321 6 1 4
1538 437 1 0.435 9.82677766333166 16.493994930492107 14.87359979129742 1 1 3
1579 450 1 0.435 2.8292003024039114 18.399090049549603 17.45346340977649 -3 -1 -1
1217 346 5 0.265 3.99371612380211 13.520500091279327 26.258376837777057 -2 -3 0
1618 463 1 0.435 4.036496770178829 19.492544266215468 25.312180127242033 4 -2 -1
3140 971 2 0.265 6.455412167597835 15.11410589713474 18.202709871743505 3 2 2
2692 821 1 0.435 1.3449203290947667 19.35850738109955 24.66745251954692 2 -3 -2
83 25 5 0.265 1.0177140880792153 13.185686613325664 22.616639159616465 -2 3 -7
2267 680 2 0.265 8.884405868048262 12.480687078145483 18.735534236672216 -3 7 -1
2359 710 1 0.435 9.29289538655192 21.022659889690615 16.439231016560516 -3 -1 5
3162 978 3 -0.7 4.336562636297452 19.40460969849224 18.39943209857231 2 1 -3
1578 450 3 -0.7 2.0345407164748344 17.85582811550104 17.467074118426854 -3 -1 -1
2752 841 1 0.435 8.44465711402892 16.432473247191087 27.57164206508148 6 1 4
2417 730 2 0.265 5.736597426362448 15.083290701716946 22.53565774804418 -1 1 -4
2566 779 1 0.435 8.045672307605642 11.395557497509463 26.739965924376506 3 4 0
889 253 1 0.435 6.16680997482823 16.07108701806809 28.181205649609762 0 -5 0
2543 772 2 0.265 8.54981705018951 18.500281850682082 25.424215676987885 1 5 4
3163 978 1 0.435 4.539755248587699 20.363610387822884 18.331818643992644 2 1 -3
2418 730 3 -0.7 6.611432903854739 16.06137813540157 21.939070568949667 -1 1 -4
2988 920 3 -0.7 1.2156038799755624 16.242712056112794 19.58039627004273 4 0 3
2202 658 3 -0.7 7.900793344981703 18.371569087646503 22.016178886500235 0 -3 3
86 25 6 0 0.8409009775338657 11.689878668300247 22.80824823273106 -2 3 -7
2989 920 1 0.435 1.7213735747940124 16.626958231267366 18.86720099440139 4 0 3
2565 779 3 -0.7 8.672733468986864 11.488666298193335 27.479276932362183 3 4 0
3161 978 2 0.265 4.920422573229828 18.83415283102758 19.56520501414703 2 1 -3
1326 378 5 0.265 3.0707857384274013 13.399850884552288 18.41163135730914 -1 -4 -4
1219 346 4 0.435 4.2176942699787805 14.847660336693792 27.771112779975912 -2 -3 0
1975 582 1 0.435 0.8964337345559109 21.035916143631038 23.500737677978744 5 1 0
1220 346 6 0 3.6588395345273974 12.084760153089096 26.676536393985167 -2 -3 0
1278 364 1 0.435 7.565021220113643 12.859146345124827 22.22302948186726 3 1 3
2401 724 1 0.435 9.75609112139078 16.135579854277832 17.234199801221965 3 3 -1
3196 989 1 0.435 4.836763123498158 12.14117816127446 20.764279070556622 -3 1 -2
3142 971 1 0.435 8.157237154488572 15.638610453141165 19.021264779649844 3 2 2
3141 971 3 -0.7 7.222712670376493 15.827241981315728 19.197309996171125 3 2 2
2191 654 1 0.435 7.085219362320571 21.310335148288424 15.926790612832672 1 -3 1
2201 658 2 0.265 9.020857966213677 18.407940807393896 21.1368495057563 0 -3 3
1617 463 3 -0.7 3.4159212534591905 19.123586667764446 24.671236682670685 4 -2 -1
2358 710 3 -0.7 8.430049197345047 20.74077821626932 16.741493338194616 -3 -1 5
2399 724 2 0.265 10.976303585027585 16.029972815496215 18.805621099178932 3 3 -1
1254 357 3 -0.7 7.268138469694084 11.719918563148097 25.19340970238122 0 1 5
84 25 7 -0.7 1.2640044528407164 13.430282976241553 21.201271223070357 -2 3 -7
1249 355 1 0.435 6.265856059035398 19.92141370159089 25.412742859351464 2 3 5
2987 920 2 0.265 2.0265125688609436 16.407215242542268 20.740871328421445 4 0 3
1255 357 1 0.435 7.643506304301641 12.163643197459184 24.475121147649176 0 1 5
1329 378 6 0 1.728117883006784 12.851735278032644 17.82596503464204 -1 -4 -4
3195 989 3 -0.7 5.5988847772308326 11.966258583978364 21.289245108969947 -3 1 -2
1248 355 3 -0.7 5.47136836726725 20.057028454243497 25.93117302847892 2 3 5
2544 772 3 -0.7 7.798011663737412 19.43673937445858 24.619864229034654 1 5 4
1647 473 3 -0.7 9.891730506241796 17.01284142931013 28.11743429329444 -1 -4 -4
2751 841 3 -0.7 7.688848579949583 15.89427866431517 27.42470897726297 6 1 4
1328 378 4 0.435 2.667718060509828 13.121482653283831 20.320248214754177 -1 -4 -4
1616 463 2 0.265 4.1818683834990455 18.08317255000487 24.07193412590393 4 -2 -1
2357 710 2 0.265 8.449795348676265 20.227243288741057 18.0816334550486 -3 -1 5
1577 450 2 0.265 1.027504739588554 18.483671749693343 16.63430338143931 -3 -1 -1
888 253 3 -0.7 5.3172145596862475 16.421003740138623 28.41201530972663 0 -5 0
2545 772 1 0.435 7.568473471295775 19.0444069520546 23.758467371346246 1 5 4
1536 437 2 0.265 7.943117851095938 16.353090849148145 15.044203289298064 1 1 3
2189 654 2 0.265 5.223055398083779 21.242663855851642 15.519677068994529 1 -3 1
209 58 1 0.435 10.447837991369388 12.13203406153806 26.946565735524914 -2 2 -4
1277 364 3 -0.7 8.145069154746032 13.062689003604701 22.969747857411747 3 1 3
1276 364 2 0.265 9.378305756694909 13.597537456988437 22.447330624102904 3 1 3
1974 582 3 -0.7 1.0516559198060336 21.69385909440191 22.82956169737126 5 1 0
85 25 4 0.435 0.5492212269984883 13.830005716900816 20.743489120649816 -2 3 -7
3222 998 3 -0.7 11.021684625416418 21.170808371062517 16.50786064211461 -5 -1 -1
1348 384 5 0.265 4.570452546107546 17.124568309969785 35.2823333696834 1 -2 0
64 20 2 0.265 1.2755827926138639 20.861014828634094 29.702649620539404 3 1 -1
2349 707 3 -0.7 7.253364889393005 19.15565535561908 36.45072184612506 -7 -3 -2
2106 626 3 -0.7 5.9076126615385816 20.67561852533894 41.418038202802634 1 -1 1
1477 419 2 0.265 7.198152280010933 15.063201221997476 41.55452064900989 -1 -1 -3
453 129 7 -0.7 6.90600863089515 15.318583070869456 33.446814381152194 -2 2 4
2135 636 2 0.265 9.211510573237453 19.33641370925837 40.88564577071995 0 1 -2
483 137 6 0 8.278482013583565 13.716122314074214 37.57403442039394 3 3 3
2851 874 1 0.435 2.8022146785914144 14.339302103272313 31.577532380103488 9 1 1
149 42 6 0 10.293254867682174 14.235924881859978 33.4475373554599 5 3 0
318 90 2 0.265 1.5177529186750023 21.236139161095487 36.59509998938694 2 1 3
2136 636 3 -0.7 8.187907995233557 18.988732923314156 41.825030710871616 0 1 -2
643 182 6 0 10.650223275697986 16.220498086053375 39.42745684883596 -5 -4 -2
147 42 7 -0.7 10.59409347162415 12.040532864203593 34.27944845117109 5 3 0
319 90 3 -0.7 1.7760964423781735 19.941771718753703 36.12860761533838 2 1 3
914 260 3 -0.7 3.4430034359204895 13.562180675575767 38.05392122741759 2 -3 1
913 260 2 0.265 2.7589171566800768 13.927137517251236 36.86275528967299 2 -3 1
320 90 1 0.435 2.054404587117552 20.040770391376036 35.214165054574835 2 1 3
714 201 6 0 9.458235349992819 19.31291417013435 32.188048727223645 -1 1 1
2850 874 3 -0.7 2.18599499711007 14.88441061452463 31.97535021987095 9 1 1
711 201 5 0.265 9.3355225746952 20.52482808565883 33.14301543751431 -1 1 1
1349 384 7 -0.7 6.009967412602778 16.861021317423543 35.382817245168724 1 -2 0