LAMMPS data file via write_data, version 29 Aug 2024, timestep = 11000000, units = real

3072 atoms
7 atom types
2072 bonds
5 bond types
1072 angles
3 angle types
216 dihedrals
3 dihedral types

0.8968892290981358 42.70976077086597 xlo xhi
1.2250044748583093 42.3166955251157 ylo yhi
1.3140152196854658 41.928794780275695 zlo zhi

Masses

1 1.008
2 15.011
3 15.999
4 1.008
5 14.011
6 15.011
7 15.999

Pair Coeffs # lj/cut/coul/long

1 0 0.4
2 0.195 3.75
3 0.185 3.02
4 0 0.4
5 0.0914 3.95
6 0.195 3.75
7 0.185 3.02

Bond Coeffs # harmonic

1 1000 1.43
2 1000 0.945
3 1000 1.54
4 1000 1.43
5 1000 0.945

Angle Coeffs # harmonic

1 55.045 108.5
2 55.0452 108.5
3 50.0772 109.47

Dihedral Coeffs # fourier

1 3 0.416953 1 0 -0.0579664 2 180 0.373453 3 0
2 3 0 1 0 0 2 180 0 3 0
3 3 0 1 0 0 2 180 0 3 0

Atoms # full

736 222 2 0.265 7.874013594415274 8.316533227187904 3.6786686753368216 -2 1 -2
1572 500 1 0.435 4.984143946275905 5.284099275561805 5.560604832664849 0 2 2
1002 310 1 0.435 10.018650418150493 4.517101777731293 9.83255201896707 1 3 0
2880 936 1 0.435 4.401109005090802 3.9634481675173467 9.937810960215607 1 6 0
950 293 3 -0.7 3.356120453621441 6.482360701450373 2.3118858833281175 4 0 0
434 126 1 0.435 2.211899177988282 10.688203634071016 7.482882545893567 -2 0 1
890 273 3 -0.7 9.020582739714051 4.501971529778123 1.3737580978703365 3 2 4
1056 328 1 0.435 7.7592558124225866 5.026605343635495 14.779735713318802 3 -5 -1
1935 621 1 0.435 10.752944074947829 10.386931226650702 6.755914036426989 0 3 -1
738 222 1 0.435 7.518682392056111 10.121667720686464 3.1528512205073116 -2 1 -2
993 307 1 0.435 10.649661097688178 2.508916547702331 10.315269295745127 -1 1 3
172 50 6 0 3.2275069904948617 11.017164722271705 13.733438426636479 2 0 0
891 273 1 0.435 8.378845892962287 4.405679246751287 2.130031240702743 3 2 4
2482 804 2 0.265 6.854498812213986 10.24906526466603 13.71163661290706 -1 8 8
1000 310 2 0.265 8.649248882131655 3.524056554740854 8.863986508421789 1 3 0
2831 920 3 -0.7 3.632176361055326 4.527890173082433 11.366775724373381 1 1 -4
2879 936 3 -0.7 4.899758049796353 3.7114422814835657 9.148432461617642 1 6 0
992 307 3 -0.7 11.127917364773642 1.7239389164030892 10.593439212006164 -1 1 3
2382 770 1 0.435 6.385037158756464 4.571687071988167 3.987313467096252 5 0 3
328 95 7 -0.7 2.3916176347534743 9.214322068656056 7.06740006052708 2 3 2
330 95 6 0 4.742865161392902 9.60473894934791 6.272002215246998 2 3 2
206 60 2 0.265 4.509800113608321 7.40548865558347 13.788909213312746 -4 0 4
2143 691 2 0.265 5.057418573762855 11.244184162332203 2.9242077191268923 1 0 0
2380 770 2 0.265 7.757974111807775 3.266632545906346 4.46098478267043 5 0 3
951 293 1 0.435 2.9194970704485352 5.97153287062691 1.6354535353847712 4 0 0
208 60 1 0.435 4.697247268194304 7.8623865051759845 11.866476700577097 -4 0 4
1570 500 2 0.265 3.648842573312894 4.014768725664322 4.58677158732235 0 2 2
2257 729 2 0.265 6.754465626804046 8.970248820798226 9.96270955857263 0 0 0
2258 729 3 -0.7 5.563377013764549 9.11265377840823 10.757176629521835 0 0 0
1001 310 3 -0.7 9.96648976200243 3.7372697065114795 9.35245439781854 1 3 0
1055 328 3 -0.7 7.777977893436028 5.745230695373218 14.198218787877156 3 -5 -1
1325 418 3 -0.7 10.852286368528842 7.231520765791647 7.826606057750173 1 0 2
2824 918 2 0.265 6.470978890857548 6.48797732910146 7.174638517597051 4 1 1
2825 918 3 -0.7 5.258991990327288 5.7345953884495575 7.1036220200547255 4 1 1
207 60 3 -0.7 4.345587577252209 7.177134952914228 12.384332280571005 -4 0 4
549 159 6 0 10.722995286628896 9.011527479947944 13.124898658377111 -1 -2 4
1352 427 3 -0.7 9.264102264730461 10.983014509676005 5.779236874526535 3 -2 1
2543 824 3 -0.7 1.535053469958326 6.781335290356443 8.407681525199623 -1 -3 2
1353 427 1 0.435 9.042902454363183 10.541916108598723 4.9608901162236165 3 -2 1
1571 500 3 -0.7 4.845920704904161 4.802519496096938 4.741466798486568 0 2 2
1836 588 1 0.435 3.30262672204762 11.150909299231246 9.032205959249204 -1 0 2
737 222 3 -0.7 8.229277556513098 9.701367827898277 3.5841043079847137 -2 1 -2
2826 918 1 0.435 5.260371783577099 5.160544866281881 7.840556964240535 4 1 1
2107 679 2 0.265 6.640245211488378 1.658338572132657 12.029774782242404 -2 -2 4
2381 770 3 -0.7 7.208468180651934 4.266416834361877 3.5644644768798615 5 0 3
327 95 5 0.265 3.4409490241076783 8.833143985507109 6.175421598872953 2 3 2
1351 427 2 0.265 8.163057198545902 10.861636226415717 6.737568996995297 3 -2 1
2878 936 2 0.265 4.721348782763156 2.2958052827264206 9.039608296318512 1 6 0
2830 920 2 0.265 2.652896834945635 4.505466362362653 12.402012323026744 1 1 -4
2259 729 1 0.435 5.063420301571022 9.869532134739929 10.488152118345813 0 0 0
1054 328 2 0.265 8.161188980693346 5.165305315094487 12.95091240664804 3 -5 -1
2484 804 1 0.435 8.460278060457448 10.926809285297919 14.249530232753568 -1 8 8
2832 920 1 0.435 4.112248828617809 5.366939693011199 11.453253752359815 1 1 -4
2144 691 3 -0.7 6.086763361222242 10.582507997432257 2.1755154257632885 1 0 0
329 95 4 0.435 2.313104145878076 8.447959226103212 7.609127390012116 2 3 2
1835 588 3 -0.7 3.9817890712435546 11.114548316207697 9.6495808758922 -1 0 2
949 293 2 0.265 4.579815147892331 6.818938026940244 1.6344585619879335 4 0 0
2542 824 2 0.265 1.216768441306488 7.383229597965518 9.65463143594955 -1 -3 2
2483 804 3 -0.7 7.691292470241041 11.3748146857519 13.881931287906442 -1 8 8
1662 530 1 0.435 6.018544022597516 3.8933866872845835 1.7142114854921713 4 1 -1
2174 701 3 -0.7 10.858108628312543 6.18843680700139 10.24786130754019 0 3 -2
2175 701 1 0.435 10.8296467800266 6.6401041889414865 9.418586428074708 0 3 -2
546 159 5 0.265 10.24183916021008 8.85743957771738 14.61279617861964 -1 -2 4
1326 418 1 0.435 10.96810428873867 8.169473856227924 7.755207827380663 1 0 2
548 159 4 0.435 9.381485791545703 10.074553810539925 15.833120324186497 -1 -2 4
1548 492 1 0.435 1.6285527320656712 6.889979104733786 16.668630374264918 -1 -1 -3
1525 485 2 0.265 1.7720014026955577 11.044577631024653 24.547279054273506 0 4 -5
135 40 3 -0.7 9.959392749779525 3.921271530955083 17.516770480915923 -5 3 -1
655 195 2 0.265 3.8892796378103034 2.2003885754973385 22.137461933073663 4 -4 0
513 149 4 0.435 5.6841621258085855 5.738890454124157 24.631287958367082 -1 -5 1
2249 726 3 -0.7 5.458990521507975 9.5844580917189 21.138116400136703 0 -2 2
451 131 1 0.435 11.28259825630385 1.3463514861022867 16.10400475262554 -1 2 -2
2863 931 2 0.265 1.0216773861861745 1.606950372070835 18.716004162775853 -6 -1 2
656 195 3 -0.7 2.9974462047713732 1.6664634192290486 21.181518160857163 4 -4 0
1767 565 1 0.435 5.599203877659373 8.032698885956238 17.94769413716646 6 -4 1
635 188 3 -0.7 3.1033016302545025 11.15996275174375 21.420012072314545 1 -4 -2
675 201 1 0.435 5.334981470588218 4.943683895869718 21.92420304130279 0 -2 4
361 105 2 0.265 8.7963165055568 6.059054485980121 20.543489597904554 -3 -1 4
934 288 2 0.265 8.645830338980964 10.721154178452 18.481571322349012 -3 3 -4
1328 419 3 -0.7 4.528662145701421 7.87175812023096 23.124872292287154 3 -5 2
1547 492 3 -0.7 1.2242894870610344 7.770787681551104 16.694517157757076 -1 -1 -3
2280 736 1 0.435 3.076690709881069 7.400428264779945 27.552907863415623 4 -4 0
636 188 1 0.435 3.865452489853604 10.609483848152676 21.324725482156197 1 -4 -2
511 149 5 0.265 7.4445632560424455 6.033702032066016 24.024010356176046 -1 -5 1
2397 775 1 0.435 5.69762163863173 9.933848401182694 18.950462138784104 6 -3 3
1765 565 2 0.265 6.90055679753874 6.917179410725846 16.970911367136015 6 -4 1
362 105 3 -0.7 8.488766953734242 5.0298243094828194 19.584980393139837 -3 -1 4
673 201 2 0.265 4.492735592787294 5.516523413915353 20.284338210248638 0 -2 4
514 149 6 0 7.593091617062077 7.1414762432071335 25.085130927681597 -1 -5 1
214 62 1 0.435 1.0564611049991444 11.273326204135316 20.234141323188545 1 0 2
363 105 1 0.435 7.647975667731644 4.717883098560856 19.915108020925214 -3 -1 4
1327 419 2 0.265 3.11477815849235 7.59001595227191 23.399046784928718 3 -5 2
3053 994 3 -0.7 9.64250933897676 10.928236014879012 22.124833753389733 0 5 -1
936 288 1 0.435 7.202592787321086 10.353156024067667 17.27550312773988 -3 3 -4
1036 322 2 0.265 3.280298059329155 4.556522174086471 26.174629093152454 3 3 -1
1037 322 3 -0.7 4.319136122538352 5.478627892543761 25.768927099414682 3 3 -1
2250 726 1 0.435 5.199853564080007 9.005151853949798 21.870419665464865 0 -2 2
935 288 3 -0.7 8.1136208763152 10.493608514974216 17.178680831401984 -3 3 -4
2396 775 3 -0.7 5.586963743890778 9.796613262046453 17.990423105711944 6 -3 3
966 298 1 0.435 9.753711470782616 2.0766138803205485 17.301262914567104 -5 6 1
1465 465 2 0.265 3.49419674699483 4.476986127289294 16.564779024143565 -1 0 -2
1038 322 1 0.435 4.091519709948585 6.25765832613637 26.349991054825292 3 3 -1
2248 726 2 0.265 6.831836073489039 9.953904786235304 21.3406016743209 0 -2 2
2395 775 2 0.265 4.663993708070883 10.823208703746547 17.61500386594024 6 -3 3
136 40 1 0.435 9.463806847727772 4.28128629069799 18.212422880738902 -5 3 -1
674 201 3 -0.7 5.608882627923027 4.997263657966624 21.0317170014223 0 -2 4
1466 465 3 -0.7 3.170661111720827 5.717914876936443 17.17235224706747 -1 0 -2
1329 419 1 0.435 5.110973218982197 7.147989069699464 23.402344819702343 3 -5 2
2279 736 3 -0.7 4.003320299853353 7.409530300533794 27.448978717934104 4 -4 0
134 40 2 0.265 10.55658421964558 5.066143512193004 16.90897115415635 -5 3 -1
657 195 1 0.435 2.0796635354585806 1.7174365333903663 21.48914864180961 4 -4 0
512 149 7 -0.7 6.021770411497596 5.9445929153061146 23.789072230051016 -1 -5 1
1166 365 3 -0.7 7.568139054425164 3.904055703328598 15.951971238596803 1 3 -1
547 159 7 -0.7 9.804667595069352 10.155749021440528 15.007409579135238 -1 -2 4
2548 826 2 0.265 10.754152693496353 3.990596473252211 23.934815649803284 2 6 -2
439 128 2 0.265 5.396347191630171 11.355941868780267 25.090953931804655 1 0 3
1165 365 2 0.265 6.772748781856881 2.706103067179226 15.867350994083171 1 3 -1
1467 465 1 0.435 4.037497553531967 6.131766582724871 17.360174218364776 -1 0 -2
1147 359 2 0.265 7.385687163959323 2.1196871967712654 25.68855395112557 3 -1 0
2481 803 1 0.435 1.1447459723933204 6.453312236851472 26.563812557602514 -1 -3 2
2480 803 3 -0.7 1.5083117284842888 6.851668175297069 27.37076896937195 -1 -3 2
1766 565 3 -0.7 5.743120156463435 7.068077519635844 17.796409790140036 6 -4 1
1167 365 1 0.435 8.278852230104468 3.8109397989963143 16.591973551989515 1 3 -1
2848 926 2 0.265 8.693370125799026 2.3425339025979266 21.500829344164345 -1 -1 2
1567 499 2 0.265 9.564142725840231 11.128373515188331 25.69225724476144 1 0 3
3052 994 2 0.265 10.588781638818485 9.890924735821413 22.379685581503377 0 5 -1
905 278 3 -0.7 11.234247607925548 3.934315078798361 27.658313745117287 -1 1 1
2550 826 1 0.435 11.326415590771214 5.766438224574615 23.666395575666815 2 6 -2
3054 994 1 0.435 10.094174918608992 11.486009451158168 21.45525631277727 0 5 -1
145 43 7 -0.7 6.305405541512233 4.033993137597523 31.052920379516422 2 -3 2
1846 592 2 0.265 7.5827985121157635 2.3211186499353174 38.025845895728146 -4 1 3
147 43 6 0 5.269318662986754 3.8917829089857343 28.894055435005665 2 -3 2
2778 902 1 0.435 2.15080498980052 5.947709939239056 32.961640589494564 1 0 -1
76 22 4 0.435 1.1655204964775316 10.937219752705266 31.756680453495726 -3 1 -3
907 279 2 0.265 10.630197867537643 9.751106364672783 33.469193873039046 3 3 1
1187 372 3 -0.7 10.526237439515048 5.553306980991445 36.13491804966535 2 2 -2
751 227 2 0.265 4.128258316475333 1.2754663266043444 31.940601280489265 7 -1 4
1271 400 3 -0.7 4.940205610103887 6.445880623486931 36.67668593982157 -3 6 -2
2522 817 3 -0.7 7.158808395770718 10.17383893478959 39.90148589688596 -1 -3 -6
2777 902 3 -0.7 1.3116345072978168 5.491596354408013 32.75882410877516 1 0 -1
908 279 3 -0.7 10.032343877027019 10.05143004607229 32.18616081359081 3 3 1
2081 670 3 -0.7 7.949449830852839 6.140961906009018 30.087952782207594 -1 3 -1
1077 335 1 0.435 3.5573927261782488 6.543964480330015 34.63203891628368 0 3 -3
1459 463 2 0.265 3.599497708280433 10.795221864423029 37.49583235036342 -3 1 5
752 227 3 -0.7 5.406264213939849 1.8729533152889988 32.2458182036025 7 -1 4
1528 486 2 0.265 1.818773488165774 2.646718752843478 29.12609495644254 -3 1 -1
889 273 2 0.265 8.306472936153213 5.215480684756014 40.94432139195304 3 2 3
940 290 2 0.265 4.913116705676103 3.8167387626557905 34.890619598858045 -2 1 0
2080 670 2 0.265 8.063026779544654 6.612992278568413 31.43304356694809 -1 3 -1
280 82 3 -0.7 2.73255996329756 4.10724909508454 41.001513175761445 3 3 2
2135 688 3 -0.7 2.569173095138269 7.033805220694133 37.466114597721614 -2 1 0
74 22 5 0.265 1.3158422227052626 11.255581211269561 33.62116454519437 -3 1 -3
144 43 5 0.265 5.211004096077044 4.553478959499394 30.291732196700984 2 -3 2
2474 801 3 -0.7 11.216426719485026 3.710932774097542 37.81395908305596 -1 0 -2
942 290 1 0.435 6.31322466276739 2.5230192925232515 35.561485007009125 -2 1 0
904 278 2 0.265 10.1211794070684 4.263983349845708 28.479581898558294 -1 1 1
1272 400 1 0.435 4.113571622931785 6.637215242813568 37.13299702727461 -3 6 -2
2521 817 2 0.265 7.283754850442494 8.77395489352545 40.10658395670927 -1 -3 -6
279 82 2 0.265 1.9378201975767588 3.4422665960231895 40.017357071450775 3 3 2
1660 530 2 0.265 6.169592397192636 2.0470830411710756 41.512029935464 4 1 -2
1186 372 2 0.265 9.475834637557725 5.075051697542294 35.31937336255239 2 2 -2
1075 335 2 0.265 4.469782496808665 7.736994413758571 33.32773391005443 0 3 -3
901 277 2 0.265 10.073096991981028 8.559160205027776 29.334701564531496 -1 -2 -3
903 277 1 0.435 8.439065450249611 7.571384960028708 28.763137497560365 -1 -2 -3
1529 486 3 -0.7 1.0901551778161918 1.8797418745972552 30.091330890039323 -3 1 -1
146 43 4 0.435 5.920545938802009 3.318206202673978 31.522158033578464 2 -3 2
2523 817 1 0.435 8.018666488105662 10.501813457180928 39.66021013533906 -1 -3 -6
941 290 3 -0.7 5.697064563718191 2.5992040667121104 34.87256144600869 -2 1 0
2134 688 2 0.265 1.6495188462403392 7.731139015266181 36.6070766597136 -2 1 0
1076 335 3 -0.7 3.3554684516082176 6.8930094820064225 33.74015260320897 0 3 -3
2136 688 1 0.435 2.10600450719417 7.070980398703701 38.28273790377965 -2 1 0
753 227 1 0.435 5.429468530770697 2.044210405867701 33.17209926035304 7 -1 4
1530 486 1 0.435 1.022465733832602 2.4513890563039276 30.91632671415677 -3 1 -1
1188 372 1 0.435 10.677217605895422 4.817791588613815 36.71949307443006 2 2 -2
2082 670 1 0.435 7.430395070600533 5.3340405781509 30.14750142146156 -1 3 -1
1661 530 3 -0.7 5.518304519523597 3.2676140855180815 41.831716537424995 4 1 -2
281 82 1 0.435 3.5571550782900054 3.618213634994581 41.079740349253704 3 3 2
1787 572 3 -0.7 1.9238711631847638 10.269895685385702 30.381630658080315 2 0 1
1788 572 1 0.435 2.8496837854450847 10.55229610675773 30.481696617477173 2 0 1
2981 970 3 -0.7 1.291198865464965 7.432011414822635 39.96896791716451 0 1 1
2838 922 1 0.435 10.623111164501221 4.110133610570245 41.164855239667176 -1 1 -3
1270 400 2 0.265 5.844906397203831 7.556855542258464 36.867461604994546 -3 6 -2
1460 463 3 -0.7 2.747527954095599 11.472379039950278 36.59958439287792 -3 1 5
1119 349 1 0.435 0.9574623306442204 3.956808293661454 32.51282330840906 0 5 -2
909 279 1 0.435 10.019586683276643 11.00145107640884 32.04058968633076 3 3 1
1786 572 2 0.265 1.6348475679478764 10.247844593332108 28.99648029132294 2 0 1
989 306 3 -0.7 9.268253710656536 11.416802870673635 38.946977005616965 -1 2 -7
1847 592 3 -0.7 7.157045410526679 1.3092237962609397 37.11234812110158 -4 1 3
902 277 3 -0.7 8.9893062386274 8.25522507199442 28.434412621246818 -1 -2 -3
2278 736 2 0.265 4.559159442556194 8.251869705405085 28.51174880107047 4 -4 0
2924 951 3 -0.7 4.455175500100799 11.097165514851207 30.605819558405436 -3 2 2
2980 970 2 0.265 1.9828673095908433 8.654164265430332 40.3737539586713 0 1 1
2925 951 1 0.435 5.205720929539639 11.362128274409336 30.11190895952084 -3 2 2
2145 691 1 0.435 5.9664435645354486 10.678802730024083 41.80678019430774 1 0 -1
2045 658 3 -0.7 1.7699367825258518 14.766343940087946 12.426249645164383 -1 2 5
1447 459 2 0.265 6.716136411850798 14.7925964284274 7.299623887020292 1 -4 -1
1448 459 3 -0.7 5.974802866767319 14.176230327356288 8.39340003559499 1 -4 -1
567 165 1 0.435 2.589376847877667 12.272074854428322 6.26921951072585 -5 0 5
2332 754 2 0.265 9.347901299873056 18.544688038377153 5.337995302264755 -4 0 1
1586 505 3 -0.7 4.718439040695811 19.791676456208588 3.9344969211254037 2 2 3
2333 754 3 -0.7 10.599595770169843 18.023367529079515 4.874539673139889 -4 0 1
1184 371 3 -0.7 10.107916424635167 16.18249916485719 8.642953004323022 3 0 2
2588 839 3 -0.7 4.7222316125100985 20.842377428709614 6.345691892212752 2 1 -1
433 126 3 -0.7 2.117413449494392 11.57369080613607 7.821943588308632 -2 0 1
2589 839 1 0.435 4.638467320240499 20.442617218383386 5.480581193887808 2 1 -1
1223 384 3 -0.7 4.130724444996581 15.721160645958756 9.384499117080063 5 3 3
3038 989 3 -0.7 6.802414877162011 21.555943009876675 8.766603890700171 -2 3 -2
565 165 2 0.265 3.8987659059664397 13.579147942726037 5.838851304025664 -5 0 5
2352 760 1 0.435 11.237979281672875 12.970176902538467 1.7930613443456498 -4 4 3
1643 524 3 -0.7 1.9137406618631259 16.60062230332015 8.31004839712741 -3 4 -1
1834 588 2 0.265 3.9535876329431034 12.33420029270952 10.353509233598343 -1 0 2
3039 989 1 0.435 6.330361999175009 21.151221672002446 8.03412243168524 -2 3 -2
1289 406 3 -0.7 7.624388190849986 12.980447750734742 10.241800564356407 1 5 -3
1820 583 3 -0.7 2.69757437678553 16.39443411623852 1.9222723372729535 0 -4 -1
1585 505 2 0.265 4.711474592984126 18.425176089800544 3.522863697369579 2 2 3
78 23 5 0.265 2.5542136604409924 20.88309040266683 14.040619643254615 -1 1 -1
1224 384 1 0.435 4.762735563783818 15.034228447913792 9.095028155998147 5 3 3
1644 524 1 0.435 2.5501295067136587 16.073198608404766 8.761298690785297 -3 4 -1
1819 583 2 0.265 2.4786777059054526 15.20589674125688 2.7213357936789713 0 -4 -1
67 20 7 -0.7 7.196089536069567 20.892057632350873 3.582338437417352 4 1 4
2171 700 3 -0.7 1.9886553847850832 19.9017104902993 3.3317224200975812 1 4 4
1257 395 1 0.435 10.7153608239015 20.709700017647766 12.299274115684177 5 0 -4
1230 386 1 0.435 10.433657611838376 15.660474626362856 7.0175262320858485 1 3 -1
1228 386 2 0.265 11.20562406373696 14.249244569862451 6.167019707662349 1 3 -1
2217 715 1 0.435 6.748384426730473 21.20664488129385 1.9180092329388396 1 3 0
2531 820 3 -0.7 8.753580156859913 18.094745332672815 9.961518014426568 -1 -4 2
1062 330 1 0.435 8.654524740532867 13.092768864126162 1.3655248841126368 -1 -1 2
3066 998 1 0.435 7.382751722830756 13.105893279913701 13.484719252123492 3 3 2
26 8 3 -0.7 2.4370854583873465 17.26615328134695 13.827331254121631 2 -3 -3
1587 505 1 0.435 3.856151248684535 20.1386898510854 3.68960716856521 2 2 3
1449 459 1 0.435 6.652158514686018 13.616273396521581 8.731979980377186 1 -4 -1
27 8 1 0.435 2.394611036536914 18.203028028802887 13.982230102211956 2 -3 -3
3064 998 2 0.265 5.955595786304529 14.476118267258824 13.396461266156717 3 3 2
1061 330 3 -0.7 9.392752085250754 13.313533071105223 1.9733842171248943 -1 -1 2
1060 330 2 0.265 8.843408152338437 13.702414326442499 3.246248510515771 -1 -1 2
1222 384 2 0.265 4.370932089748118 16.10156973553177 10.754327723757948 5 3 3
169 50 5 0.265 2.2463218854042695 12.001335583877554 14.292331615760041 2 0 0
3065 998 3 -0.7 7.268166282315846 13.958009701969434 13.072187549274405 3 3 2
171 50 4 0.435 2.66064518655007 13.784786544514395 13.99770303179101 2 0 0
68 20 4 0.435 6.592255043908146 20.340057553611068 4.103709744048072 4 1 4
2046 658 1 0.435 1.8239584552336543 15.687275400388929 12.676583643005086 -1 2 5
2932 954 2 0.265 9.474136663803417 16.83277823629009 1.8995146235399956 3 3 1
2334 754 1 0.435 10.593902750565166 17.206099384565135 5.368366540345256 -4 0 1
1229 386 3 -0.7 10.52273645568858 15.495315607857625 6.109655998414314 1 3 -1
81 23 6 0 3.308496691370978 20.48110003558507 12.792773210469562 -1 1 -1
1290 406 1 0.435 7.473400827349953 13.167199283956183 11.153914068626383 1 5 -3
1185 371 1 0.435 9.623111795372129 16.941089244747975 9.040105248131637 3 0 2
1642 524 2 0.265 2.2697071503626427 16.708188854052665 6.930812332238134 -3 4 -1
618 182 1 0.435 10.905879539041724 21.07287557216902 14.45311730694852 2 2 -2
2532 820 1 0.435 9.298913278620956 18.746382521464284 10.435460774328917 -1 -4 2
1288 406 2 0.265 8.98330468340459 12.627129684787928 10.210866104884927 1 5 -3
2530 820 2 0.265 7.429348966376436 18.027422798407006 10.526650265200413 -1 -4 2
566 165 3 -0.7 3.02526403189064 12.52266124792808 5.45371964970732 -5 0 5
3037 989 2 0.265 8.231305855077846 21.560604426747698 8.449694648509428 -2 3 -2
1183 371 2 0.265 10.8418631006718 15.571578807777541 9.687329245603504 3 0 2
2587 839 2 0.265 3.3975764089696803 21.394803031448724 6.471293308439095 2 1 -1
1256 395 3 -0.7 10.628158721234385 20.02991565950572 11.669056955711081 5 0 -4
2170 700 2 0.265 0.9983635314794802 18.869880953818978 3.4539376898865206 1 4 4
2172 700 1 0.435 1.5849931287168557 20.551082959467422 2.78986866765866 1 4 4
2847 925 1 0.435 10.815410964559485 11.900488527430575 14.429847293582196 3 -4 -3
781 237 2 0.265 8.075540108639224 18.420667886587946 14.208951156761113 -2 -6 0
170 50 7 -0.7 2.9051148512147957 13.209793236607183 14.711940408104198 2 0 0
2846 925 3 -0.7 10.653884926425945 12.713548913749339 13.913094141250797 3 -4 -3
141 42 2 0.265 11.259772982176498 21.346166990173792 1.4667706603877397 -3 0 -2
617 182 3 -0.7 10.871675623409573 21.763283630108063 13.782032266513387 2 2 -2
79 23 7 -0.7 2.1878418203714136 19.76589449385315 14.848187414136875 -1 1 -1
364 106 2 0.265 8.70452747847545 17.925038203680508 23.8853284924913 0 -4 -5
758 229 3 -0.7 10.713449040410024 12.84143731347768 20.407956779638674 -1 2 -4
441 128 1 0.435 7.191016133655341 12.258651228222705 24.961503625840695 1 0 3
2364 764 1 0.435 10.42423388476788 16.068146598229617 16.79395891949177 3 5 -8
2705 878 3 -0.7 5.947788630915391 15.307164978885352 20.49684405712278 -1 0 1
2014 648 2 0.265 1.8773360367404448 17.170853484685438 23.510056654877534 1 -2 5
718 216 2 0.265 2.9037493334393787 17.454810208504004 19.444754372284315 -2 2 -1
25 8 2 0.265 1.9665500358425145 16.56152795620261 15.009682827041084 2 -3 -3
634 188 2 0.265 3.4475097291047714 12.527166408196793 21.723252735254825 1 -4 -2
2759 896 3 -0.7 5.254633495349813 16.533624692138467 23.074503170782872 0 2 -1
2760 896 1 0.435 5.72232574270188 16.248671314384218 22.25158714314949 0 2 -1
2758 896 2 0.265 4.796873200190451 15.469001857630293 23.95606759066568 0 2 -1
2810 913 3 -0.7 11.083111239793988 20.119726963256024 15.637683036624495 2 -2 1
1017 315 1 0.435 9.586262249495254 16.296423283888622 27.21744961438427 2 -1 2
2086 672 2 0.265 1.8318978061870497 19.709598981990172 27.367146905203093 -1 0 1
440 128 3 -0.7 6.262979920384077 12.504128520246855 24.888439990893062 1 0 3
2610 846 1 0.435 6.005074522259031 17.408328003517337 19.993918567801607 -1 1 3
757 229 2 0.265 10.477200943627187 14.224757710462072 20.35631704098746 -1 2 -4
1972 634 2 0.265 5.354349297888779 19.218800272612327 25.362878957857237 -2 -4 -3
2099 676 3 -0.7 4.762007549871818 15.677731698657443 18.212400721830168 -3 -4 -2
2704 878 2 0.265 6.739382830234647 14.157867832688007 20.233589583967735 -1 0 1
80 23 4 0.435 1.5469496914942655 20.051090536123198 15.51227121467564 -1 1 -1
1016 315 3 -0.7 9.553000729741925 15.365423199223507 27.197491075751294 2 -1 2
2706 878 1 0.435 5.340030237090046 15.387274372136392 19.755995792617576 -1 0 1
836 255 3 -0.7 1.8883163277914548 14.155991684006763 16.90501291494439 2 -5 0
2609 846 3 -0.7 6.105606725496781 18.266764367694993 19.585224358198662 -1 1 3
1015 315 2 0.265 9.402080605422947 14.995170010358462 25.818882013367894 2 -1 2
366 106 1 0.435 7.105232886194584 17.736982054671337 22.831201797241683 0 -4 -5
1220 383 3 -0.7 6.143708109653672 21.372343402055865 16.190240807875565 -1 4 1
783 237 1 0.435 9.36284554285672 17.62227707005692 15.391707784937426 -2 -6 0
46 14 3 -0.7 1.2546395063301197 14.453333953555415 25.86828323133031 -4 2 -5
719 216 3 -0.7 2.373799799024832 17.071369239258424 18.165102874862484 -2 2 -1
2608 846 2 0.265 7.355199983709364 18.20523420823295 18.920023504833765 -1 1 3
2090 673 3 -0.7 10.701104900576059 18.328829142446097 27.908641521749637 -3 -6 -3
1219 383 2 0.265 5.19939309133986 20.758341605352374 17.071798891189495 -1 4 1
1973 634 3 -0.7 5.655362613799075 17.86234082999461 25.730066266023222 -2 -4 -3
835 255 2 0.265 1.4999777107287473 12.97210889286459 17.567967622721955 2 -5 0
2362 764 2 0.265 9.308662161066895 14.953063788014472 15.929928458774473 3 5 -8
2021 650 3 -0.7 7.234775977924535 21.343829130424666 22.473446620428543 4 0 -1
1974 634 1 0.435 5.34095758725795 17.30431918129265 25.02683208597199 -2 -4 -3
1161 363 1 0.435 11.332167936027142 20.680545126780935 22.19941615538348 1 0 4
2811 913 1 0.435 10.329651046879388 19.475122468792716 15.618996432273851 2 -2 1
2098 676 2 0.265 5.437347008513041 15.304636849099428 17.01954104884357 -3 -4 -2
2363 764 3 -0.7 9.633767791022958 16.232221917434465 16.408845736553758 3 5 -8
1159 363 2 0.265 10.538775130146174 20.44168427715365 20.501650348949344 1 0 4
332 96 3 -0.7 11.023983033499823 20.270131715764343 24.191586166146692 -1 4 5
1569 499 1 0.435 9.210638659152451 11.549293534349289 23.837041404773213 1 0 3
1568 499 3 -0.7 8.915180389730825 11.899837607977156 24.671963126796904 1 0 3
365 106 3 -0.7 7.598906395933806 18.441601653933137 23.121688842657598 0 -4 -5
2100 676 1 0.435 3.9860508073328744 16.172037800745784 17.957561166462593 -3 -4 -2
2089 673 2 0.265 10.68122463378767 19.76004116851468 28.02098628130943 -3 -6 -3
759 229 1 0.435 11.32759361370997 12.683585962037942 19.71132119700659 -1 2 -4
720 216 1 0.435 1.417508091928927 16.87403829980294 18.30798583218125 -2 2 -1
2809 913 2 0.265 11.21004565485237 20.335646752752933 17.01608605607933 2 -2 1
1221 383 1 0.435 6.1721773453646485 20.99791285220106 15.315685279341443 -1 4 1
2022 650 1 0.435 7.442135712468539 20.392173531256965 22.66076752785368 4 0 -1
837 255 1 0.435 2.3721262526092195 13.864611286149513 16.1183179404592 2 -5 0
45 14 2 0.265 1.0038204465742424 14.565055781853692 27.29206321050827 -4 2 -5
2020 650 2 0.265 6.057104025391113 21.409781034575378 21.610000426321587 4 0 -1
47 14 1 0.435 1.5018429122348058 15.267260469439481 25.546623386684985 -4 2 -5
782 237 3 -0.7 9.333929511385163 18.433211390525887 14.891096451406437 -2 -6 0
333 96 1 0.435 10.432817869562765 20.858448954341267 24.649077634324335 -1 4 5
2083 671 2 0.265 6.994062837039545 11.723726328464512 28.060095135666696 -3 4 1
2015 648 3 -0.7 1.2612033248743773 17.07126368448243 24.783904168293688 1 -2 5
1527 485 1 0.435 1.1279326420036582 12.715390313639979 25.385843011583766 0 4 -5
2085 671 1 0.435 6.669849643529706 13.297895357424261 29.18831776645111 -3 4 1
1213 381 2 0.265 10.785835826730532 19.36291558821465 32.46862433165877 1 3 -4
1294 408 2 0.265 9.148948336505967 16.847707200447992 37.42100562418987 4 -1 4
805 245 2 0.265 4.212900986289983 18.42604738498311 30.006139411243236 3 -1 4
1756 562 2 0.265 6.276881495949153 13.946063378575394 39.60157309914333 5 3 -5
3031 987 2 0.265 9.90116062751577 13.272366191291832 35.84613744824564 -3 0 -2
1514 481 3 -0.7 2.920489789640051 15.36962204196259 30.745377420839475 1 -2 -1
1833 587 1 0.435 7.747569109995368 19.072453326166187 37.28067465796853 1 2 0
528 153 6 0 7.14832418549503 16.331328489850275 33.14723050159183 7 2 1
806 245 3 -0.7 2.820241505090387 18.01812604862007 30.10436096761131 3 -1 4
526 153 7 -0.7 8.874544904128879 15.102332477420433 31.96630737576648 7 2 1
990 306 1 0.435 9.720722013406812 11.764097337588316 38.13921695811798 -1 2 -7
3032 987 3 -0.7 10.427623572984922 12.281558612062565 36.74994821315772 -3 0 -2
1494 474 1 0.435 3.0025673742649213 13.966680704165995 35.036498508396434 0 -4 1
1266 398 1 0.435 5.858307239458384 21.36838486445554 34.05139155905532 2 5 -2
2215 715 2 0.265 7.259172450948949 19.913694692784016 41.16815357651325 1 3 -1
972 300 1 0.435 8.576582223615823 15.307447829215727 28.739686341754688 0 3 1
807 245 1 0.435 2.8055743204642978 17.10422742694295 30.417438058628623 3 -1 4
1296 408 1 0.435 8.517503490902172 17.33497798014238 39.187603945430226 4 -1 4
38 12 2 0.265 4.4842066770550435 16.366095040544494 37.75329849294177 -3 0 -2
971 300 3 -0.7 7.9725378412349555 15.119722477128832 29.460582683722855 0 3 1
2934 954 1 0.435 8.462705127835967 15.531269331803989 41.552948793161555 3 3 0
2820 916 1 0.435 6.858261505901117 19.838761209453594 35.378898324836086 -1 -2 3
1832 587 3 -0.7 7.473823809344503 19.889293553098128 36.886746868670556 1 2 0
2084 671 3 -0.7 6.343491031712456 12.409463768041492 29.13832790812681 -3 4 1
2216 715 3 -0.7 6.6160930811924885 21.164519208055232 41.60086496955071 1 3 -1
39 12 3 -0.7 3.1469675641410086 16.339157384243688 38.194679141267585 -3 0 -2
1492 474 2 0.265 5.020346855710555 13.873624392817057 34.68964351147549 0 -4 1
1799 576 3 -0.7 1.6782763609952918 14.873094538739776 40.18949515057348 3 -1 -2
1498 476 2 0.265 3.413930057477649 20.317049447486262 37.98124954707238 1 4 5
525 153 5 0.265 8.62054137195256 16.365877849093224 32.60353818590555 7 2 1
2041 657 2 0.265 10.867067419140955 12.265866080549532 30.260521404337286 -6 -1 1
2818 916 2 0.265 5.13797752526181 19.09379594239288 34.88734991493981 -1 -2 3
1581 503 1 0.435 2.1385307172203225 15.359774510518317 36.627748150014654 0 -1 0
988 306 2 0.265 10.261932468324428 11.605866019245234 39.9826554067851 -1 2 -7
2087 672 3 -0.7 1.7529661872258142 20.048683498281118 28.75477539062126 -1 0 1
2819 916 3 -0.7 6.342169015138421 19.779548435399168 34.56118487661097 -1 -2 3
1499 476 3 -0.7 2.516772838312952 19.215411655949104 37.842971134400166 1 4 5
970 300 2 0.265 6.911867000894422 16.08347163039953 29.497984929109307 0 3 1
40 12 1 0.435 2.781550950679927 17.20045250588022 37.99708551231637 -3 0 -2
1831 587 2 0.265 7.180199906254463 20.827152749693767 37.91267283744338 1 2 0