LAMMPS data file via write_data, version 29 Aug 2024, timestep = 11000000, units = real

3000 atoms
3 atom types
2000 bonds
2 bond types
1000 angles
1 angle types

-0.24616008716044746 40.64099008716835 xlo xhi
-0.84743352505755 39.88936352505685 ylo yhi
-0.8177433120652395 39.755973312071724 zlo zhi

Masses

1 1.008
2 15.011
3 15.999

Pair Coeffs # lj/cut/coul/long

1 0 0.4
2 0.195 3.75
3 0.185 3.02

Bond Coeffs # harmonic

1 1000 1.43
2 1000 0.945

Angle Coeffs # harmonic

1 55.045 108.5

Atoms # full

505 169 2 0.265 6.279520925139667 8.21710496962908 11.00300213368844 0 1 1
1443 481 1 0.435 1.5224397492471646 1.832033194767701 4.084055446012064 -1 2 3
1501 501 2 0.265 4.148707010893435 9.06103107436132 2.894726622152363 -6 3 -2
110 37 3 -0.7 1.3008632922281156 2.3917758963672404 12.43976415827402 4 -1 2
2034 678 1 0.435 0.29172547462202003 5.427103562166562 7.374023073438316 -2 6 4
2156 719 3 -0.7 9.319931716500907 3.481790955958825 5.567758642420058 0 2 -3
2566 856 2 0.265 6.215196196397034 0.20340998308887492 10.008776022941843 0 2 -3
1203 401 1 0.435 9.057136311865701 3.437893052053501 2.482947999754807 -6 -1 0
2567 856 3 -0.7 4.951911931346371 0.8329955156175204 9.839072023687969 0 2 -3
2155 719 2 0.265 8.092635544318767 2.771100388018043 5.491856395327682 0 2 -3
2457 819 1 0.435 2.76210096499769 5.49989448563623 0.4027560024557866 -3 1 3
506 169 3 -0.7 5.163861550499544 7.3536895959055695 10.939663287295165 0 1 1
2157 719 1 0.435 9.099205943511611 4.345068586382888 5.200679806844382 0 2 -3
1851 617 1 0.435 3.749532719427488 1.1139263087468196 4.735414437034782 1 -2 1
1341 447 1 0.435 4.211020035880719 2.413891499428497 9.293441202020205 -1 2 1
1849 617 2 0.265 4.253978726548929 1.788233124951084 6.395361568122757 1 -2 1
926 309 3 -0.7 6.925057224607721 5.161949239638552 11.140924091872666 2 -1 -3
1850 617 3 -0.7 4.628402161865961 1.3593946437760596 5.089209511966266 1 -2 1
917 306 3 -0.7 2.9460563031251272 3.564019217633958 0.8983171947314386 2 -1 -3
1340 447 3 -0.7 4.039344385228312 3.3324184723720025 9.029670280178827 -1 2 1
1263 421 1 0.435 7.009473766725772 5.815549251608648 4.663406063168641 2 3 -2
1490 497 3 -0.7 0.8744386390485743 6.777216426104358 2.3397569221170085 5 2 0
918 306 1 0.435 2.3390998678247947 2.831780462117487 0.6825702532250708 2 -1 -3
1442 481 3 -0.7 2.19534001334481 1.1805537823229475 3.8223163314295308 -1 2 3
1202 401 3 -0.7 8.912937864408747 3.516450905176894 1.5858863926239728 -6 -1 0
1460 487 3 -0.7 6.693388408419548 -0.17742042698338412 4.005585595459188 -3 1 2
447 149 1 0.435 0.3419430638491564 3.616232169878592 5.833619501943346 2 -1 0
2455 819 2 0.265 3.0700729051830824 7.329622830947558 -0.25011075726712595 -3 1 3
454 152 2 0.265 2.6342532782780608 9.088027762179944 6.771553552933931 0 2 -7
916 306 2 0.265 4.13205503089831 2.8916388151600816 1.3413511683963821 2 -1 -3
1201 401 2 0.265 9.68602673525102 2.548954731859308 0.9568615592037537 -6 -1 0
1802 601 3 -0.7 5.548038048174961 4.942282976332842 7.232141059500247 -8 0 3
1461 487 1 0.435 6.1253044622337836 0.41429892190292317 4.544889195308068 -3 1 2
1861 621 2 0.265 4.7035343797881675 5.12327670188839 4.029053120073831 -3 2 4
1459 487 2 0.265 6.936353266906666 0.6087907394863497 2.8595909744038153 -3 1 2
927 309 1 0.435 7.398155574761667 5.577572691064949 11.841965559953818 2 -1 -3
383 128 3 -0.7 1.3034467118866266 1.6193778607431741 -0.24510099453775214 -1 0 1
1803 601 1 0.435 5.05579088317009 4.2269074060202545 7.635945118518453 -8 0 3
2568 856 1 0.435 4.251457813733746 0.16196353584409673 9.997005267775783 0 2 -3
1862 621 3 -0.7 5.325029388116705 6.071620620062825 4.867024248446037 -3 2 4
1441 481 2 0.265 1.6363216942618635 0.4335638990170294 2.7377021566205264 -1 2 3
1339 447 2 0.265 2.728538629041152 3.763199690719394 9.385894825589094 -1 2 1
446 149 3 -0.7 0.3511626458762809 2.7290812117150804 5.436276100169411 2 -1 0
2032 678 2 0.265 2.128197491139478 5.7087918431480595 6.662026887888501 -2 6 4
1863 621 1 0.435 5.222012034850387 5.810528355110283 5.791941337974662 -3 2 4
2456 819 3 -0.7 2.2336175106804332 6.237749052605653 0.10596285599834165 -3 1 3
1262 421 3 -0.7 7.950051836204231 5.68609724825206 4.5224090820159795 2 3 -2
925 309 2 0.265 6.53601262436594 3.8481953951806824 11.608234311523074 2 -1 -3
1491 497 1 0.435 1.4256604456047997 6.711693935301718 1.5885677471173087 5 2 0
384 128 1 0.435 0.3419932637356805 1.5216901055380685 -0.12033265712729702 -1 0 1
1261 421 2 0.265 8.333424000457656 6.472204288616149 3.4098455310120173 2 3 -2
507 169 1 0.435 5.489764080567896 6.477400739054304 10.787844275747002 0 1 1
1801 601 2 0.265 6.386305100318823 5.539956660286229 8.212125452879103 -8 0 3
356 119 3 -0.7 9.79997194033777 8.920068431427692 7.419725460310911 0 0 5
880 294 2 0.265 1.747718342736519 7.163676257002239 12.170514120621597 4 2 1
882 294 1 0.435 3.7463585651012203 7.37771969821914 12.021197624633142 4 2 1
47 16 3 -0.7 8.883082189352082 8.994619327819118 1.3090222827800857 -1 -4 -2
2718 906 1 0.435 0.36445944892734605 3.892313901806908 11.598712520661289 -1 -4 2
2033 678 3 -0.7 0.7674740370616946 5.256593213310209 6.57328956351327 -2 6 4
1867 623 2 0.265 6.766131275267579 5.806123836157075 -0.7953359552658746 0 6 -5
136 46 2 0.265 9.44841097967582 -0.761452888723853 8.336966934819207 -1 1 -3
1489 497 2 0.265 0.9532356440458876 5.523496945456696 3.037896210908636 5 2 0
2737 913 2 0.265 9.664133441397638 1.651854133190826 11.858326620784283 3 5 3
736 246 2 0.265 9.514318532930048 4.694968638672586 9.033343593360415 3 4 -2
445 149 2 0.265 0.10127505437810619 1.8728997096597455 6.5476814454810945 2 -1 0
1556 519 3 -0.7 6.9004862547363555 9.297319305577107 -0.7222503317834503 2 -2 9
881 294 3 -0.7 3.072344352969751 7.330923818214329 12.667699274418508 4 2 1
109 37 2 0.265 2.5648029276277704 1.7905271387577804 12.7761335080097 4 -1 2
2739 913 1 0.435 9.576643652002476 1.1028502443256951 13.64789053173887 3 5 3
2582 861 3 -0.7 6.642441783954126 2.0686882757735527 19.368617918936756 0 -2 -2
2581 861 2 0.265 7.912688909243032 2.640164447003586 19.14180331844431 0 -2 -2
203 68 3 -0.7 2.3968249641921933 4.0429603488247965 17.416328842616092 1 -1 0
759 253 1 0.435 7.49180072952505 2.5737665892378105 24.910484327747646 4 -3 -2
2860 954 2 0.265 4.564163413022155 6.658557056909078 19.410914196240395 -3 -4 -2
707 236 3 -0.7 3.3594580034040913 8.220420664929627 15.204358880554643 0 3 -2
789 263 1 0.435 3.8433019104313395 -0.3684015243995079 25.01468532339774 -3 -4 3
380 127 3 -0.7 7.120816165376581 2.304130508734601 15.200735655048494 -2 0 -3
202 68 2 0.265 3.0561818021307814 2.920813354811135 16.869437356497006 1 -1 0
1246 416 2 0.265 3.6259561878421125 -0.4442041683262779 20.37205653482057 2 2 4
1840 614 2 0.265 8.936227797727154 7.863298024349316 15.838371344104313 -5 -3 -1
98 33 3 -0.7 8.569983471680706 6.287243246907619 12.985863273097019 3 0 -1
1841 614 3 -0.7 7.700876428062655 7.328796356910194 15.293096913767258 -5 -3 -1
1033 345 2 0.265 2.1006753380271483 3.731839899640713 24.596752187490917 -1 1 0
2962 988 2 0.265 4.633434976124691 3.0959172017759315 22.099045611556363 5 6 -2
1721 574 3 -0.7 8.454002591521295 6.045118068596052 22.099332727035172 3 4 -2
2964 988 1 0.435 5.765180650595765 3.1925495130842423 20.589278446107745 5 6 -2
757 253 2 0.265 6.1743117900339275 1.274834116215314 25.38108481538438 4 -3 -2
2428 810 2 0.265 7.8673330504140555 8.477428826935416 19.42088304773175 0 -1 -3
2108 703 3 -0.7 0.22053724629428118 4.311481945266426 19.265022102295916 4 0 2
2765 922 3 -0.7 1.0249338023156922 -0.05046539050206689 17.845905126409452 0 -3 7
1805 602 3 -0.7 6.365547430821705 7.649751210267764 22.242961450863387 1 -6 -1
1720 574 2 0.265 8.232325876616704 4.666919572748959 22.384238024464562 3 4 -2
2766 922 1 0.435 1.3228757329002876 -0.2789165025715139 18.732269403588898 0 -3 7
379 127 2 0.265 7.18782982469748 3.741439883543994 15.387707721910488 -2 0 -3
381 127 1 0.435 7.8529291654416 2.011694793111327 14.618374814151252 -2 0 -3
706 236 2 0.265 3.0543768365592134 7.0326920145249625 15.950629596823454 0 3 -2
2796 932 1 0.435 6.216410840203576 1.0437770428678605 16.47309104926042 2 4 -7
204 68 1 0.435 2.9757524267847146 4.6717196812842285 17.834014794823627 1 -1 0
1842 614 1 0.435 6.990834906441013 7.755741515565864 15.78798242451295 -5 -3 -1
788 263 3 -0.7 2.954989658804953 0.01956965764664864 25.026627163532922 -3 -4 3
2963 988 3 -0.7 5.066889784032959 3.7712195641296917 20.923485267170594 5 6 -2
2745 915 1 0.435 4.930633140709444 9.007585095452104 15.971416929949058 3 0 -1
2430 810 1 0.435 6.630380323909768 8.657143116600807 20.948969260995504 0 -1 -3
2583 861 1 0.435 6.327362126607902 1.8704875227619318 18.52320841247795 0 -2 -2
2795 932 3 -0.7 5.723254260716842 0.8021859740001116 17.233646148939695 2 4 -7
948 316 1 0.435 1.7543258864277766 0.08072299948503237 23.603578272129457 3 2 4
947 316 3 -0.7 1.3735398919261153 0.2593036492584291 22.73881373914379 3 2 4
853 285 2 0.265 2.41441185443849 7.302095519755618 25.828162818479036 6 1 -1
2862 954 1 0.435 4.29850387926275 4.756321832020755 19.77228764218196 -3 -4 -2
1079 360 3 -0.7 7.7797260522478044 4.225010127354446 25.88695280931216 -4 -4 -1
99 33 1 0.435 8.209351946519641 6.575562011116645 13.79082181655612 3 0 -1
758 253 3 -0.7 7.311833175499779 1.6807836624677122 24.624373566843207 4 -3 -2
2109 703 1 0.435 0.9766757716502643 4.254370517591903 18.730053107302055 4 0 2
2107 703 2 0.265 0.14107022374181566 3.0383463690478063 19.8648000445282 4 0 2
1804 602 2 0.265 5.341827026895038 7.299610004308665 23.209438595016994 1 -6 -1
708 236 1 0.435 3.2778464054307994 7.991214129462179 14.272629781506257 0 3 -2
2744 915 3 -0.7 5.887599758631586 9.106794651216896 15.904602202426592 3 0 -1
2861 954 3 -0.7 4.026922667557747 5.376202070685687 19.051342308020413 -3 -4 -2
1806 602 1 0.435 7.007619756362165 6.939107724123696 22.274259027749416 1 -6 -1
2736 912 1 0.435 9.14351712256534 1.1286272822233399 24.5906916230915 1 1 3
775 259 2 0.265 0.5734421610152733 8.22611525292733 20.601336762041175 -2 -2 -2
1722 574 1 0.435 9.208751757384169 6.275960765738515 22.653346479517744 3 4 -2
1034 345 3 -0.7 1.249802556596897 2.58537147863326 24.811567546868826 -1 1 0
787 263 2 0.265 2.308503961454797 -0.6914643560756694 26.06419802246962 -3 -4 3
1035 345 1 0.435 1.5373097575013392 1.816818313442906 24.334100754328297 -1 1 0
2794 932 2 0.265 5.318349624777287 -0.574608564955285 17.173815304338262 2 4 -7
2738 913 3 -0.7 9.282446366860505 1.8956759093217856 13.209065968212466 3 5 3
2735 912 3 -0.7 9.940697822429938 0.6586001305732774 24.878942708313954 1 1 3
2429 810 3 -0.7 6.818259507119633 9.130830065000405 20.156482275938522 0 -1 -3
946 316 2 0.265 -0.06438931010562857 0.2331835601111334 22.900389928186872 3 2 4
1248 416 1 0.435 1.8704942514255762 -0.2882062218226218 21.21548172111819 2 2 4
399 133 1 0.435 0.22726896423341092 3.2756255895576105 25.9179918761481 0 2 -3
1247 416 3 -0.7 2.240847025827123 -0.7484102641177527 20.432515667715343 2 2 4
97 33 2 0.265 9.663478157404624 5.438304655265409 13.219063049157441 3 0 -1
1637 546 3 -0.7 9.80667703465567 -0.5782255949435728 14.678244990473347 -1 1 -3
111 37 1 0.435 0.6836625906747331 1.8080105819399122 12.91123619797858 4 -1 2
1080 360 1 0.435 8.62652608817159 4.562128558411519 26.156297508887235 -4 -4 -1
2785 929 2 0.265 3.7298689765838273 2.3955251584061954 33.80091866317568 -6 2 2
2194 732 2 0.265 6.386743681699181 3.359547861181226 30.59548904465314 -1 -1 -6
462 154 1 0.435 0.211907184908395 9.065372094705976 34.46607972350339 3 1 1
855 285 1 0.435 3.5216934949157586 7.392641356281798 27.389437552044136 6 1 -1
943 315 2 0.265 7.496041732529954 2.773126767628664 35.52104633430902 1 4 -5
1870 624 2 0.265 6.68760764188223 8.880856575864295 26.628534830942172 0 2 -1
2787 929 1 0.435 5.225459764849399 3.1857437748184267 32.84529796585725 -6 2 2
382 128 2 0.265 1.5075181741623849 1.926532062132599 38.95871010208004 -1 0 0
854 285 3 -0.7 3.6553013555710794 7.007570982670027 26.5054018550881 6 1 -1
2423 808 3 -0.7 4.783781176069322 7.635527952953801 36.65118382103194 4 9 4
1006 336 2 0.265 2.1656335044119683 6.072213167092402 32.978042780607495 2 0 -7
1098 366 1 0.435 0.601112772717219 3.135998399150116 28.230001843769365 -5 4 3
1468 490 2 0.265 4.592424265794342 7.867275574909785 30.064263875061297 0 -2 1
1469 490 3 -0.7 4.162222243596141 8.354736441335188 28.799761509381632 0 -2 1
2226 742 1 0.435 9.325880368863087 1.5890024285119337 31.632236574958988 -3 -2 -1
592 198 2 0.265 4.339957407805807 0.24867710353243733 37.37659503474345 -1 5 6
1095 365 1 0.435 0.41746327781364045 8.196236035487736 27.96379302798384 5 5 -1
2225 742 3 -0.7 9.083952690091904 1.6640388259902252 32.525788930737264 -3 -2 -1
2422 808 2 0.265 3.4098302422751168 7.266764698241593 36.57900125638654 4 9 4
1097 366 3 -0.7 0.9212538156165215 2.738340211410748 29.05537637518275 -5 4 3
2386 796 2 0.265 7.204702137278206 6.226546448417234 32.91770357596522 2 2 2
593 198 3 -0.7 4.893797544000123 -0.11060356701402929 36.1251153674198 -1 5 6
2424 808 1 0.435 5.162685746518862 7.12601195331305 37.334754519714544 4 9 4
1078 360 2 0.265 6.744215967677433 5.168259981985155 26.264445132292376 -4 -4 -1
1066 356 2 0.265 8.253700587449483 -0.2375553030944395 38.006349484549354 -2 1 -1
2145 715 1 0.435 -0.12315844654561636 6.559298263511195 35.55064316759102 2 3 0
1008 336 1 0.435 3.8707754731117268 5.386924000246544 32.79378470677211 2 0 -7
2196 732 1 0.435 7.437013364412837 2.6042614087056206 31.944607994663293 -1 -1 -6
1868 623 3 -0.7 6.075170131565692 6.727092087074746 38.99443004178657 0 6 -6
2786 929 3 -0.7 4.382819604625584 3.4799554649764426 33.13477457826042 -6 2 2
2460 820 1 0.435 2.636433070122463 9.249136243319516 28.55525039337377 1 4 1
945 315 1 0.435 7.7326636956510635 0.8944802264404628 35.071993672827915 1 4 -5
594 198 1 0.435 5.670875265670087 0.4114025507013661 35.98804494456986 -1 5 6
2388 796 1 0.435 5.644041883854859 7.145422731384591 33.59084077182297 2 2 2
1007 336 3 -0.7 3.5735009455250903 6.285604216979165 32.98592958955762 2 0 -7
944 315 3 -0.7 7.123076867858891 1.3977580027089638 35.58158790049181 1 4 -5
2387 796 3 -0.7 6.5724982849523546 7.33330969083381 33.52089203883503 2 2 2
1470 490 1 0.435 4.965256016457282 8.85804445254876 28.596258746406832 0 -2 1
1093 365 2 0.265 -0.10248966542308693 6.539553348777192 28.81644056926141 5 5 -1
2999 1000 3 -0.7 9.568482104660962 1.1597446660840443 29.993814998162204 4 -1 -2
398 133 3 -0.7 -0.12008143400273882 3.59350214632959 26.71593488596168 0 2 -3
1869 623 1 0.435 6.2708396854019375 7.546436048855025 39.45030692122616 0 6 -6
2195 732 3 -0.7 6.521222358728809 2.769307400480828 31.851180911785008 -1 -1 -6
1096 366 2 0.265 2.3583340806715505 2.718488437665196 29.018592191000792 -5 4 3
2998 1000 2 0.265 8.734159160680905 0.5345284633193559 29.010974264088997 4 -1 -2
1771 591 2 0.265 9.613373109667736 7.651409738770683 37.024160911976864 1 -3 -7
461 154 3 -0.7 -0.2219834112038731 8.462020879800987 35.117541124113764 3 1 1
478 160 2 0.265 5.69241165401357 16.111538746894293 6.531164553640094 2 2 0
479 160 3 -0.7 6.851507262046627 16.373540595483032 5.6805045446690166 2 2 0
2138 713 3 -0.7 2.4512796964821693 15.13585113890204 6.721072579573414 -2 4 2
1474 492 2 0.265 9.239731214913824 15.50666839881157 9.692389702779916 -2 5 1
1896 632 1 0.435 6.573145660519871 17.964981342911965 8.964020740771069 -2 0 0
744 248 1 0.435 3.546297520438282 11.457599025042972 1.0587071136345494 3 1 -2
238 80 2 0.265 5.298842117225534 19.204077095808543 4.374170791036696 -5 6 4
901 301 2 0.265 8.63875553161442 19.406933669781118 9.265619785617815 2 2 0
627 209 1 0.435 8.51313583109537 9.638685316794978 6.419005773739608 -3 5 0
742 248 2 0.265 2.0727881022160295 11.558702124839616 -0.12152171481314855 3 1 -2
369 123 1 0.435 6.292541192204689 15.045047892882268 2.203582947991628 -3 -1 1
48 16 1 0.435 8.803363052540831 9.684481456675973 1.9263470401270495 -1 -4 -2
435 145 1 0.435 8.251528149404091 11.907599675572849 10.271097934197218 0 -1 -1
434 145 3 -0.7 8.23442969989383 12.020778975926637 11.208698731183146 0 -1 -1
2521 841 2 0.265 7.202080198781047 11.854839032346035 3.031306513388435 4 3 -3
2448 816 1 0.435 5.060033239099434 13.410329136134985 0.9307738249029875 1 2 3
1502 501 3 -0.7 4.2941347951642665 10.37037456873922 2.381817748467296 -6 3 -2
480 160 1 0.435 6.624216284629334 16.334899827797777 4.7671136952291455 2 2 0
2137 713 2 0.265 2.073956940544358 15.907097359692688 7.877929053044939 -2 4 2
648 216 1 0.435 9.307838904023884 11.282276046144544 12.500390480730042 -4 -3 0
1224 408 1 0.435 3.3692322335708655 12.034413852362379 7.712543188598001 0 0 -1
2193 731 1 0.435 3.0232509608722546 14.361755502051706 12.324122572228708 0 2 7
2523 841 1 0.435 7.693819015710809 10.112907604074705 3.7663668698320123 4 3 -3
1894 632 2 0.265 4.929271898294446 19.03552235793631 9.064749861583604 -2 0 0
743 248 3 -0.7 3.233986135663767 12.122765168382827 0.47146140906905876 3 1 -2
1058 353 3 -0.7 0.7288519898060998 10.978357846507674 4.347146261219634 -4 -2 0
1484 495 3 -0.7 9.404509161521853 15.671041354831605 6.0078422150030235 -1 0 1
2149 717 2 0.265 9.258000332346915 12.36488773717016 8.059384003605143 0 -3 -1
2191 731 2 0.265 4.3568543857396165 15.623360727915948 11.55434092981227 0 2 7
1557 519 1 0.435 7.502778690098992 9.390244318135226 0.03453416705209267 2 -2 9
469 157 2 0.265 0.6432142087638318 13.434145808604551 11.35564827863297 3 -1 -1
368 123 3 -0.7 6.675355165769556 15.572041379788946 2.8722840079291005 -3 -1 1
2150 717 3 -0.7 8.148591685674543 11.57729935478128 8.536527268971673 0 -3 -1
2192 731 3 -0.7 3.96770713657312 14.475225627574686 12.28411047047939 0 2 7
455 152 3 -0.7 2.901797053615134 10.501746193579233 6.855478828563808 0 2 -7
626 209 3 -0.7 7.831302987726659 9.788142687029568 5.78368536684783 -3 5 0
2639 880 3 -0.7 4.318077813289781 18.52033321254373 0.5727011029193974 6 3 5
1057 353 2 0.265 0.6664226031928107 12.06390645129948 3.4536087895152106 -4 -2 0
1485 495 1 0.435 8.532341392753072 15.887533295588081 5.727573805130948 -1 0 1
1222 408 2 0.265 4.903674331014147 12.949004786590384 8.624229367329466 0 0 -1
1059 353 1 0.435 0.3504601272424952 10.232422577868158 3.831561499458844 -4 -2 0
2447 816 3 -0.7 5.759994267520571 14.090241001837958 0.9942067694157297 1 2 3
2971 991 2 0.265 2.363905050035904 17.596040464737868 3.396676856293028 0 2 2
1110 370 1 0.435 3.6955769509409477 12.192524878916412 5.1330979965879475 0 -1 1
2139 713 1 0.435 3.1462362994720445 14.524510590185276 7.012839750723303 -2 4 2
367 123 2 0.265 8.00181004623323 15.761660045257589 2.4015322899536895 -3 -1 1
2973 991 1 0.435 2.5558066206649532 17.7582455293203 1.5597718520787471 0 2 2
955 319 2 0.265 -0.04029274674079733 12.776283873169604 7.137971845616763 0 4 -7
2446 816 2 0.265 6.5251291731026235 13.895093709285415 -0.21473109964906334 1 2 3
1503 501 1 0.435 4.18245707127952 10.945729200017094 3.097427994144061 -6 3 -2
2972 991 3 -0.7 1.7554020912851724 17.836523902503277 2.1116769047891113 0 2 2
1223 408 3 -0.7 3.6482840908534078 12.910931437106498 7.893293413054799 0 0 -1
903 301 1 0.435 8.824927618981329 17.929079284502674 7.989883439256257 2 2 0
625 209 2 0.265 6.560894170722247 9.408852299648082 6.364887533275422 -3 5 0
1109 370 3 -0.7 3.8188810955454695 12.242275895527817 4.179836404620359 0 -1 1
957 319 1 0.435 0.4019400357708397 11.32034529279781 5.853129977287635 0 4 -7
1108 370 2 0.265 3.9518773696447553 13.57706829842477 3.771643212158729 0 -1 1
456 152 1 0.435 2.103132623445828 10.910864571151334 6.654025825494393 0 2 -7
1895 632 3 -0.7 5.688587110098988 17.893719952275546 9.366260141226743 -2 0 0
2522 841 3 -0.7 8.003579864429451 10.656540055888438 3.0668817741649894 4 3 -3
2640 880 1 0.435 4.498152458017919 18.695612061297425 1.4768832552768423 6 3 5
470 157 3 -0.7 1.3610489657890499 14.104388428268821 12.368262987558237 3 -1 -1
2151 717 1 0.435 8.061276540329374 11.042853745836238 7.7547211114373855 0 -3 -1
902 301 3 -0.7 8.116923734571369 18.463335755042465 8.3046575574954 2 2 0
956 319 3 -0.7 0.3857239019235217 11.450411173862795 6.835268715406916 0 4 -7
433 145 2 0.265 6.920202809827665 12.588199924157673 11.434979045761915 0 -1 -1
2638 880 2 0.265 5.478776779061055 17.874665055025787 0.031574971586038725 6 3 5
858 286 1 0.435 3.203189601807633 19.29785399213035 -0.706003972118567 2 3 -2
2628 876 1 0.435 8.24850971382275 17.786359254511932 14.605390005074621 3 -3 0
1396 466 2 0.265 7.362458068442009 19.04862438760871 22.063541448518887 1 0 -1
2118 706 1 0.435 6.190235014834745 15.521242014549863 21.822684185648285 -1 0 2
471 157 1 0.435 0.757720535090306 14.026330296944773 13.154055256678385 3 -1 -1
419 140 3 -0.7 1.1520363108312026 14.594659585174002 15.259983120602605 -4 8 5
420 140 1 0.435 1.7923415128771967 13.902839252643393 15.052639954118627 -4 8 5
62 21 3 -0.7 9.348077222766092 18.403440743513013 25.33804978797489 -4 0 4
1001 334 3 -0.7 5.478092092563293 19.05842520681724 17.049103409802147 3 1 2
1398 466 1 0.435 8.114305237802133 19.178517382407424 23.796745058999075 1 0 -1
1002 334 1 0.435 6.043383277091304 18.453228234395688 17.544933036053752 3 1 2
1285 429 2 0.265 1.6327304530164355 15.632964586674863 25.718171587182145 -1 0 3
1286 429 3 -0.7 2.7328088051895043 16.43800420081378 25.242260162088737 -1 0 3
1330 444 2 0.265 5.3855058143936105 14.033743057864113 15.993861155232945 3 -3 6
2939 980 3 -0.7 3.2647041915066337 11.247679860754923 17.5120138855696 0 7 4
2839 947 2 0.265 2.1366383564377966 11.209235916537953 14.26879786886266 1 1 -2
1407 469 1 0.435 2.620532061098936 19.50020444681899 19.681971821682787 2 -2 -2
986 329 3 -0.7 8.04899721483291 16.139163303835026 14.515959795768557 -1 1 0
985 329 2 0.265 8.681733684673205 15.43982629246091 13.477953574695203 -1 1 0
2627 876 3 -0.7 8.26928336782288 18.67729526195556 14.939049473748927 3 -3 0
418 140 2 0.265 1.956129827040038 15.411342410029892 16.12949371211144 -4 8 5
175 59 2 0.265 8.485911151352434 12.428316656816143 18.77459491363774 0 -1 -1
2116 706 2 0.265 4.209417320710496 15.619501312186745 21.69389397544667 -1 0 2
766 256 2 0.265 7.026368879704386 13.369987355435532 23.39913707866754 -1 2 0
834 278 1 0.435 2.4159029145923143 18.425941696929204 22.161616507616724 0 -1 2
2117 706 3 -0.7 5.546388509944263 16.00112997557559 21.275535832562678 -1 0 2
776 259 3 -0.7 1.0852222196466161 9.34403050128832 21.311462058913634 -2 -2 -2
1597 533 2 0.265 0.626472586271415 13.394147733703402 19.83778763572048 0 4 4
1000 334 2 0.265 4.767308296690704 18.222973682609442 16.131365348425174 3 1 2
777 259 1 0.435 0.9429268417148404 10.151396434550163 20.8443970972257 -2 -2 -2
863 288 3 -0.7 5.377020189211063 11.247238412860087 19.270242529261225 3 -2 0
2840 947 3 -0.7 3.157589788438319 12.049404947269464 14.865176439165177 1 1 -2
767 256 3 -0.7 7.093126087042227 14.643450529868023 22.833665804464044 -1 2 0
1332 444 1 0.435 5.058635953060209 14.160043543376837 14.104249991759643 3 -3 6
61 21 2 0.265 9.795662993893798 17.059132295799397 25.085575604365612 -4 0 4
1405 469 2 0.265 2.2990638680147857 17.58849931627467 19.28958736125166 2 -2 -2
2841 947 1 0.435 3.165218560256444 11.727260989027744 15.773754795673863 1 1 -2
2957 986 3 -0.7 6.414048668577331 17.150927028320798 18.80640721773318 -3 3 0
768 256 1 0.435 7.953568183243673 14.681388877377964 22.46444740735905 -1 2 0
864 288 1 0.435 5.880601506198567 10.490225320048033 19.518731348131983 3 -2 0
1331 444 3 -0.7 5.753846063626171 14.434507820965393 14.668775590406684 3 -3 6
832 278 2 0.265 3.805623751284685 18.901845138501706 23.463185685818534 0 -1 2
862 288 2 0.265 4.973609776330785 11.746444139410434 20.533268265081237 3 -2 0
1406 469 3 -0.7 2.0253997715197256 18.818755107378415 19.961910372461556 2 -2 -2
2940 980 1 0.435 3.953720501099606 11.303887207259525 18.196742903410296 0 7 4
52 18 2 0.265 -0.022515261804510883 10.917556654317941 24.046415881233692 1 -4 -1
177 59 1 0.435 9.668130007032909 13.872136948333344 18.630265748107252 0 -1 -1
1210 404 2 0.265 9.58915602530643 10.127163460235804 23.64215832575058 4 0 0
987 329 1 0.435 7.206403119999447 15.772950062322309 14.63076297959965 -1 1 0
2956 986 2 0.265 7.423570135124638 16.382728790792058 18.134709193486472 -3 3 0
833 278 3 -0.7 2.7786371842199244 18.054546952154038 22.952538655733367 0 -1 2
1598 533 3 -0.7 0.06127623904761226 12.065217811240103 19.841453303591184 0 4 4
2958 986 1 0.435 6.104842255652333 16.67952567666856 19.587359033363303 -3 3 0
2743 915 2 0.265 6.1715720864918575 10.38585566658866 15.340380414605 3 0 -1
1287 429 1 0.435 2.481058959715216 16.86040708196956 24.399723273258434 -1 0 3
2938 980 2 0.265 2.420963308305984 10.105765824026916 17.740947864566497 0 7 4
2626 876 2 0.265 9.327543234291307 19.473534703198315 14.373623788848088 3 -3 0
2087 696 3 -0.7 9.49968982279059 14.787965861801304 21.552116270427984 -5 0 3
176 59 3 -0.7 9.338075304917869 13.365542965270171 19.376838811324 0 -1 -1
555 185 1 0.435 4.250662580392289 16.734251503154866 26.03668494435077 -1 -1 1
2088 696 1 0.435 9.37784082218078 14.310536786577172 20.741673786830923 -5 0 3
2006 669 3 -0.7 8.064548869465222 14.8422317821701 32.615818591782016 1 0 -3
1364 455 3 -0.7 3.4576104348335246 14.23546313865698 29.489444483764945 0 -3 -3
1321 441 2 0.265 3.1041306423449413 15.264765073457657 39.07208020886569 0 -3 0
1452 484 1 0.435 9.06463097819154 15.810403069360337 38.91781015252303 -4 -6 -5
1365 455 1 0.435 3.6270280187565747 15.089638212506102 29.90385024308969 0 -3 -3
1451 484 3 -0.7 8.300897775052988 16.159089685349215 38.53877341125832 -4 -6 -5
2113 705 2 0.265 1.6799015500345342 10.674322827685069 33.071157485359656 -1 -3 -4
553 185 2 0.265 5.290053349653989 18.22859028588886 26.74215231903523 -1 -1 1
2459 820 3 -0.7 1.725892121426856 9.519277840446367 28.458835628969496 1 4 1
2458 820 2 0.265 1.6773053814197538 10.876466203274532 28.055994697826872 1 4 1
2114 705 3 -0.7 0.36707886331299167 10.139174823792816 33.30172266255978 -1 -3 -4
2761 921 2 0.265 3.8037819772265893 11.05982278228015 37.22089089249168 3 2 -5
2618 873 3 -0.7 3.3114714541681054 13.876030800222319 33.28047253537267 8 4 -1
554 185 3 -0.7 5.049239701008815 16.841574990530336 26.56193400278666 -1 -1 1
1567 523 2 0.265 3.408197917448112 17.80426352101424 30.52240356526366 2 -4 -1
633 211 1 0.435 1.75423036913699 16.15363241192353 29.03457431966037 -1 1 -4
2619 873 1 0.435 3.6110950978108254 12.988167139548262 33.38436533633771 8 4 -1
1619 540 3 -0.7 0.3182274069084603 13.238975229135876 37.64675129105139 2 -2 0
1607 536 3 -0.7 5.383956279388211 11.669999291203219 34.113810828773204 -3 -1 6
24 8 1 0.435 1.590314264614974 18.301689926536415 37.945113035515284 -6 -2 0
1606 536 2 0.265 5.9525384714326774 11.135302031721611 32.9279312103987 -3 -1 6
1323 441 1 0.435 2.5510821736226434 15.465126810338866 37.34365274768908 0 -3 0
2005 669 2 0.265 7.907322863110057 16.039994602657444 33.39174329904759 1 0 -3
2649 883 1 0.435 2.479010899195519 17.71398453282343 35.72421865901479 0 -3 -2
467 156 3 -0.7 9.769710981628377 18.76188656024112 28.170223931796716 -2 2 -1
1727 576 3 -0.7 0.7207266255235835 14.331881826263736 32.53461658823966 1 -2 3
1450 484 2 0.265 8.439563320270391 16.358744279850615 37.11635066756322 -4 -6 -5
2015 672 3 -0.7 5.6527849991820025 14.112812601565832 26.641458194869898 1 4 -3
631 211 2 0.265 0.14613655222415994 15.2059523773991 29.684114130758566 -1 1 -4
23 8 3 -0.7 1.3356107649952336 17.776545040950296 37.205914874525206 -6 -2 0
2885 962 3 -0.7 8.194105256239268 15.217451053348615 29.971675247672206 -5 1 1
526 176 2 0.265 8.278396294548806 12.679257640079644 28.292617078906524 -4 5 -4
1726 576 2 0.265 0.425190088237121 15.661061133578869 33.06695362678962 1 -2 3
1322 441 3 -0.7 2.64494632567064 14.702162680139125 37.861361537697945 0 -3 0
2763 921 1 0.435 4.6735514707912005 9.452883459771892 36.59231298735814 3 2 -5
22 8 2 0.265 0.35718720300571116 16.859581388924692 37.67364611717035 -6 -2 0
2884 962 2 0.265 6.976716720744108 15.893015981047785 29.581247114490786 -5 1 1
527 176 3 -0.7 7.199056123621171 12.2106201978267 27.52282707763883 -4 5 -4
1555 519 2 0.265 7.371674591403595 10.120402984290639 38.78085382617758 2 -2 8
63 21 1 0.435 9.500011252700123 18.499181364064206 26.28389312470736 -4 0 4
1728 576 1 0.435 1.639166575124076 14.086418278638698 32.77564989754499 1 -2 3
2007 669 1 0.435 8.66331415634364 14.25410690404451 33.04117801766562 1 0 -3
2854 952 2 0.265 9.302734092745643 12.095667903246731 34.581695058366385 -1 -1 0
1608 536 1 0.435 5.369895462448544 11.169226795385832 34.899296371554705 -3 -1 6
2647 883 2 0.265 2.8078829417291726 18.98848348336815 34.21117611577498 0 -3 -2
1363 455 2 0.265 4.16819405619618 13.19691227218672 30.158180576512063 0 -3 -3
1620 540 1 0.435 1.1822269032820178 13.574430182841219 37.84870021988942 2 -2 0
528 176 1 0.435 6.638537258549583 13.007659816853389 27.508173648331503 -4 5 -4
2617 873 2 0.265 4.197813682612964 14.734793558969786 34.00119412006057 8 4 -1
2016 672 1 0.435 5.549668076995764 15.058562024621917 26.49293068323077 1 4 -3
2648 883 3 -0.7 2.695657152413457 17.691943754200405 34.811623874695655 0 -3 -2
2886 962 1 0.435 8.247343424680421 14.970503504157634 30.911846479171253 -5 1 1
2014 672 2 0.265 4.4217747081306245 13.47414657945494 26.30647300059571 1 4 -3
2762 921 3 -0.7 4.674483337786201 10.360636933332968 36.31037979004709 3 2 -5
1872 624 1 0.435 6.649520986595214 10.574568593525976 27.7092065383724 0 2 -1
1871 624 3 -0.7 6.262578382698153 9.690606975162355 27.705523163814995 0 2 -1
1569 523 1 0.435 2.9760732619282253 16.605848611869185 31.937765896308548 2 -4 -1
2565 855 1 0.435 9.84189163064722 15.828263774309484 29.73326389740071 -4 -1 -4
1568 523 3 -0.7 3.442532151290757 16.509921354893663 31.14439438394662 2 -4 -1
1618 540 2 0.265 0.28871033170594973 12.68863080099269 36.33060605382581 2 -2 0
632 211 3 -0.7 0.8670218785249899 16.406815033966932 29.312526303879565 -1 1 -4
857 286 3 -0.7 2.62431253623297 19.47374185419972 39.14613530120307 2 3 -3