LAMMPS data file via write_data, version 29 Aug 2024, timestep = 11000000, units = real

2916 atoms
4 atom types
2187 bonds
3 bond types
1458 angles
2 angle types
2187 dihedrals
3 dihedral types

2.285517433501127 44.65560256648332 xlo xhi
2.5822739455433563 44.15483605442455 ylo yhi
2.6589011381846355 43.77931886179984 zlo zhi

Masses

1 1.008
2 14.011
3 15.011
4 15.999

Pair Coeffs # lj/cut/coul/long

1 0 0.4
2 0.0914 3.95
3 0.195 3.75
4 0.185 3.02

Bond Coeffs # harmonic

1 1000 1.54
2 1000 1.43
3 1000 0.945

Angle Coeffs # harmonic

1 55.0452 108.5
2 50.0772 109.47

Dihedral Coeffs # fourier

1 3 0.416953 1 0 -0.0579664 2 180 0.373453 3 0
2 3 0 1 0 0 2 180 0 3 0
3 3 0 1 0 0 2 180 0 3 0

Atoms # full

584 146 3 0 9.901094472404482 12.022829192260527 12.180299606072765 5 -1 3
2301 576 2 0.265 8.876545293880561 8.389799588420175 12.383613204406286 1 1 2
2276 569 3 0 6.920603284157539 5.426662400886242 16.056913667402394 -2 -1 1
675 169 1 0.435 7.162923906686319 7.176067973858619 10.014105679205496 0 0 0
674 169 4 -0.7 6.386388322187111 6.6507358299688315 9.917964392123631 0 0 0
927 232 1 0.435 4.956772965702479 11.800082123913992 13.573929792857463 1 1 0
242 61 4 -0.7 5.813953382378953 5.9366571598172335 7.183221892140109 1 0 0
1450 363 4 -0.7 4.60052070073624 3.6518657795475544 7.672269496766357 -1 4 1
1449 363 2 0.265 3.2325731394884327 3.618136667846927 7.304033899521797 -1 4 1
2345 587 2 0.265 2.726938360300855 7.156133619666136 11.22165653399652 -2 -2 1
98 25 4 -0.7 8.9984023388931 7.423545545397105 8.549656163705224 1 1 -1
2388 597 3 0 8.121892642253151 3.4862173311028655 3.9950756182014047 4 -2 3
1190 298 4 -0.7 8.883746302440741 9.0032587518787 6.1145991985694845 -5 -1 1
1014 254 4 -0.7 6.436522130455857 10.15684228414563 10.989472760762398 2 1 -1
406 102 4 -0.7 12.277069844057918 12.804223485626705 9.052788880191404 2 0 1
408 102 3 0 11.314623933651957 10.431948288719308 8.934175214467231 2 0 1
928 232 3 0 7.136029628765233 11.8379025757411 14.97815882798082 1 1 0
100 25 3 0 10.481859599343046 5.6039463652617325 7.877821818173055 1 1 -1
1191 298 1 0.435 8.59779297875483 8.394675636202006 6.827709061977172 -5 -1 1
241 61 2 0.265 6.359381412171735 6.74801977570703 6.089390232021927 1 0 0
2304 576 3 0 10.237834776154337 7.717144102846914 12.415726612259673 1 1 2
2656 664 3 0 10.562974980298621 2.9992375385764 11.575689446124992 2 -1 0
2348 587 3 0 3.320221841105366 8.582027234755767 11.11579289779412 -2 -2 1
1016 254 3 0 6.105738615754037 10.15040033712008 8.574905835580795 2 1 -1
926 232 4 -0.7 5.465111493377579 11.020711057762128 13.376420046974818 1 1 0
1771 443 1 0.435 9.57074468388215 11.761046644666424 3.094397333509775 2 1 -3
2193 549 2 0.265 2.677933508512214 8.529737269873376 15.96115895529356 6 -3 5
1451 363 1 0.435 5.054406334930623 4.388509228996049 7.265647507276276 -1 4 1
405 102 2 0.265 11.664843146783664 11.78041433108776 8.261582530191216 2 0 1
1013 254 2 0.265 5.7075508107902255 10.756907982977177 9.90994336729351 2 1 -1
1015 254 1 0.435 6.0886796753670325 10.610525991075798 11.737840400311251 2 1 -1
552 138 3 0 12.712561635252184 4.96799599618438 14.312117112546225 2 0 2
2654 664 4 -0.7 8.132202294188037 2.7052025267047246 11.38859449938239 2 -1 0
99 25 1 0.435 8.825382850266124 7.99317601881699 9.308344556086247 1 1 -1
2861 716 2 0.265 7.375948957644883 11.662322150903545 4.329706919536374 1 3 2
583 146 1 0.435 12.33945162550439 12.645070039345148 10.897405155827968 5 -1 3
673 169 2 0.265 6.535507605097987 5.421423092215463 10.709035791448452 0 0 0
2302 576 4 -0.7 8.233194959609254 8.472379993327468 11.114654566533519 1 1 2
244 61 3 0 5.856198531908909 6.134236545189491 4.798725942650052 1 0 0
97 25 2 0.265 10.078156911519642 6.574795639605721 8.96478518374601 1 1 -1
859 215 1 0.435 5.381579746802501 2.7397322412404623 8.887247526717633 0 3 -2
1189 298 2 0.265 9.985850850805686 8.364989523545443 5.456503340886085 -5 -1 1
243 61 1 0.435 6.229476713772401 6.170256739043881 7.984564909100359 1 0 0
2303 576 1 0.435 7.4473298193552555 9.007565575980319 11.217498651936959 1 1 2
2385 597 2 0.265 9.424719134904251 4.043132465067231 3.401347655376758 4 -2 3
925 232 2 0.265 6.1762762461765925 10.710287022579458 14.563725947103999 1 1 0
2863 716 1 0.435 8.857849410920531 10.570126592437116 5.082978243777253 1 3 2
2862 716 4 -0.7 8.781431595342056 11.318579381601873 4.510470561358249 1 3 2
676 169 3 0 6.305316881539934 5.6742981633631775 12.225923792201419 0 0 0
549 138 2 0.265 12.53287241810902 4.373072277869493 15.69025006393598 2 0 2
1619 405 1 0.435 3.345522396803945 12.975278251751618 13.38247955419299 -2 2 0
458 115 4 -0.7 7.849357638478024 2.6015974082916085 14.101774794691016 2 1 3
8 2 3 0 2.830207594264209 4.661800915976494 14.964250080981888 4 0 0
2275 569 1 0.435 8.736000243618896 3.8463742109671983 15.317114427827246 -2 -1 1
582 146 4 -0.7 12.11382780660742 12.58990772743383 11.792256939026993 5 -1 3
1192 298 3 0 9.474223546220928 7.739246043775548 4.14504202426718 -5 -1 1
2274 569 4 -0.7 9.179603238763228 4.486529551125776 15.854234676761049 -2 -1 1
551 138 1 0.435 10.754067116043457 5.052204339061458 16.18435058314674 2 0 2
1857 465 2 0.265 2.5495964331700773 12.579260414123153 10.570631746786152 3 0 6
1618 405 4 -0.7 3.717446203604162 12.838103209542345 14.259532358469407 -2 2 0
459 115 1 0.435 7.898661074019844 2.6850567088385455 13.155891406386914 2 1 3
1247 312 1 0.435 11.442270779203934 12.821386774331884 2.7203267563737796 1 2 2
2273 569 2 0.265 8.213704427047485 5.036269369657726 16.739145064740228 -2 -1 1
2777 695 2 0.265 7.866819884387662 3.256659497431495 25.63285207038596 1 0 -2
763 191 1 0.435 7.182993940631014 11.124441025709569 24.98830335139361 1 0 2
1768 442 3 0 6.273680135981229 4.4874091771439915 29.11230259488233 2 0 4
2762 691 4 -0.7 9.258123566814776 8.562962912809427 25.38550580815129 6 2 4
2372 593 3 0 11.501011874476095 9.873203090960171 17.537218479658492 1 0 3
1815 454 1 0.435 10.548711285665947 8.441957956315441 26.517147186439537 3 0 3
2779 695 1 0.435 8.527859983922603 3.3049018224757845 27.484650846564733 1 0 -2
1198 300 4 -0.7 11.686869340965343 5.235180053595801 19.237124192539113 1 1 1
2371 593 1 0.435 9.82054265504105 10.641239049122639 19.50594420087339 1 0 3
2763 691 1 0.435 8.689885747168141 9.311113444978533 25.34528176957466 6 2 4
550 138 4 -0.7 11.621534801027696 5.189755802234467 16.506186287321903 2 0 2
2370 593 4 -0.7 9.645477175803425 9.734334433725024 19.259134365341392 1 0 3
2761 691 2 0.265 9.56833033513738 8.344625368701504 24.00064233796099 6 2 4
1143 286 1 0.435 8.410488626448295 8.85102451991893 19.53150838469882 -4 1 3
1813 454 2 0.265 11.264388219785761 7.383701177539816 28.042050156075113 3 0 3
2869 718 2 0.265 7.324140012142116 5.000425919261181 20.32570715681741 3 4 2
2162 541 4 -0.7 5.248614753817115 6.54470341513966 23.127231287530872 0 3 0
761 191 2 0.265 8.781117585192838 11.972976626069968 25.403451856822628 1 0 2
646 162 4 -0.7 3.773648070072263 9.982729062567085 25.646629952160534 -2 4 4
2369 593 2 0.265 10.84856391862179 9.14900179708794 18.73654667728151 1 0 3
1117 280 2 0.265 10.482336205904366 12.423801126375986 29.364110697088822 2 3 -2
645 162 2 0.265 4.270392848376804 9.456780550459637 26.87960771088524 -2 4 4
1870 468 4 -0.7 10.991611029233088 12.381671158840792 19.622008867226455 3 0 0
1177 295 2 0.265 2.8217082749680573 4.9219753751827255 24.88805777258265 -3 3 1
2378 595 4 -0.7 10.316885439859023 3.762580539695592 20.987887949816127 2 3 1
2871 718 1 0.435 7.193695124105179 6.967600965554183 20.529567699181325 3 4 2
2740 685 3 0 3.161156352572534 5.834206730875815 20.025065529436944 3 2 -2
2844 711 3 0 2.378985352970148 6.749637410045739 29.087187223718747 4 -1 0
647 162 1 0.435 3.057641248538828 9.418923853012558 25.296507548908874 -2 4 4
2161 541 2 0.265 5.937470105447156 7.7331799884432035 23.467499674830393 0 3 0
1199 300 1 0.435 11.776675439206496 5.170588315389978 18.29366005292044 1 1 1
1142 286 4 -0.7 7.618447219181224 8.323776168942018 19.764770814397867 -4 1 3
2870 718 4 -0.7 6.762950514857602 6.2022884339367295 20.89768655503478 3 4 2
1141 286 2 0.265 6.60369874404008 8.673173695914272 18.812719843663803 -4 1 3
2379 595 1 0.435 10.712067794504001 4.347393799760308 20.38062236663888 2 3 1
2377 595 2 0.265 10.27885087047682 4.3376429003249335 22.309408418333224 2 3 1
648 162 3 0 5.036483051921331 10.478243026461222 27.73682591601455 -2 4 4
762 191 4 -0.7 7.922132805035493 10.808287511529137 25.505546102166267 1 0 2
1766 442 4 -0.7 8.089120082850648 2.8756904684073707 29.02599036142107 2 0 4
1765 442 2 0.265 6.970223564519626 3.2973714403306715 29.819862119582456 2 0 4
2164 541 3 0 5.35999071042375 8.897533420175458 22.67714400169706 0 3 0
2163 541 1 0.435 5.695706271887129 6.349387508651115 22.297091536141934 0 3 0
1178 295 4 -0.7 3.220179868000108 6.278702961890366 25.190581074558295 -3 3 1
2854 714 4 -0.7 5.590334848891226 11.748764326011655 24.489534145148863 2 4 1
2855 714 1 0.435 4.967124833519538 11.05247499546553 24.779567959068572 2 4 1
2764 691 3 0 10.859206028801042 9.042882330563945 23.467429569649397 6 2 4
2780 695 3 0 7.601305634747876 4.678397618693037 25.12707072805624 1 0 -2
1814 454 4 -0.7 11.156708657298477 8.574701217527029 27.247370024435664 3 0 3
1144 286 3 0 6.132829431680738 10.11985268665474 18.993634842063404 -4 1 3
1179 295 1 0.435 3.9058292945409017 6.481986884517573 24.561146916958677 -3 3 1
2872 718 3 0 6.21943859527039 3.9413611030681794 20.411100601243938 3 4 2
2778 695 4 -0.7 8.894301747751868 3.372001232266552 26.611892238872027 1 0 -2
1872 468 3 0 9.108730217634687 12.17035376670637 21.192088883830795 3 0 0
2380 595 3 0 11.69089898987955 4.287959331936204 22.907240674845294 2 3 1
764 191 3 0 10.249867125211473 11.700664766928153 25.76321457458736 1 0 2
1816 454 3 0 11.639719581423568 7.988742239063221 29.436910392358318 3 0 3
2196 549 3 0 3.000575017619642 9.758437376137959 16.891411509205646 6 -3 5
1197 300 2 0.265 12.848796868889597 5.883693457025249 19.718767249286408 1 1 1
303 76 1 0.435 5.373947568886325 4.960757348121904 33.200448587664226 3 2 1
221 56 2 0.265 5.640967852361429 11.524989430068535 39.874234460325766 1 -2 1
1314 329 4 -0.7 5.353633492375988 4.555132279073198 40.50582837234293 4 -4 0
1120 280 3 0 9.950560367785148 11.195434340315954 30.15374334208833 2 3 -2
1597 400 2 0.265 10.882858791549104 10.897021690361827 35.48112368483484 1 2 2
463 116 1 0.435 7.108190435189379 9.623789986524013 36.70160409194442 -4 0 0
774 194 4 -0.7 5.7587199217371 9.854971846981767 35.54770813796742 1 -3 -3
223 56 1 0.435 4.420910290747592 10.615480228042584 41.06931419469885 1 -2 1
390 98 4 -0.7 10.858000427566285 3.4593702937970985 31.435542832805822 3 -1 -3
1079 270 1 0.435 12.517859423769403 3.568329827016959 39.14041681159891 0 -2 2
1599 400 1 0.435 9.499492926325868 10.441701167075243 36.81118498297593 1 2 2
1565 392 2 0.265 5.278049836131515 7.930578888747997 42.49359090556442 3 1 -1
301 76 2 0.265 6.2089104731518905 6.746189079617293 33.46912889863364 3 2 1
773 194 2 0.265 4.642873715801352 9.956159128964128 36.42765128163127 1 -3 -3
2842 711 4 -0.7 3.459916353802074 5.554130647198643 30.89007506129181 4 -1 0
1598 400 4 -0.7 10.249253431626709 11.043379690456689 36.75268243300799 1 2 2
304 76 3 0 6.791460435707588 7.733609486227544 32.44779352250952 3 2 1
389 98 2 0.265 10.883159224200172 4.713130975160874 30.75530591012154 3 -1 -3
521 131 2 0.265 4.49104503731283 12.540604316077262 31.672291616040848 -1 -1 -2
391 98 1 0.435 11.04132579670078 3.58970630628027 32.36545307377552 3 -1 -3
258 65 4 -0.7 3.8800231786814474 6.654249080075629 39.8266619855346 -4 2 -1
1344 336 3 0 4.992121835342219 3.8108978468882944 37.126717671372646 0 3 0
2386 597 4 -0.7 9.747818198677667 3.2790068646442094 43.3590266268163 4 -2 2
1080 270 3 0 10.85330069873951 5.434002027386858 39.19788429137451 0 -2 2
1770 443 4 -0.7 10.061162961573416 12.003036119962273 43.43385854234148 2 1 -4
222 56 4 -0.7 4.511400535433269 11.461680140565182 40.69640089953906 1 -2 1
1313 329 2 0.265 6.547441865512873 4.290390517578908 41.2641156630756 4 -4 0
1315 329 1 0.435 5.18805176880409 3.704097438106108 40.15367552285156 4 -4 0
1566 392 4 -0.7 4.535709351015404 8.632466982778535 41.465370107184285 3 1 -1
1111 278 1 0.435 11.266197291348812 10.550966879340839 37.98273622352697 3 0 -2
462 116 4 -0.7 7.9803463525373655 9.404536686933083 37.08352131334924 -4 0 0
259 65 1 0.435 4.424257615037936 5.877731365763319 40.05268785539161 -4 2 -1
775 194 1 0.435 5.934664270665429 10.755825136269603 35.292840583553414 1 -3 -3
1243 311 1 0.435 12.47167592836088 3.3424341096177494 41.5515557688249 0 -1 -1
2841 711 2 0.265 3.330092742206126 6.832506497147427 30.31445909490945 4 -1 0
1600 400 3 0 9.986081191768307 10.248213115801507 34.39614706351939 1 2 2
776 194 3 0 3.5278556899794244 9.019855719663147 36.00067185645345 1 -3 -3
759 190 1 0.435 6.187168400478143 12.836773444553227 33.72604836936986 2 1 -1
1316 329 3 0 7.769613598332844 5.24621400832188 41.01295796037239 4 -4 0
655 164 1 0.435 2.6923593119376372 3.412430971737821 30.390084561126546 0 -1 -4
2046 512 4 -0.7 12.29749463041281 4.42622453141254 33.73836884803963 2 0 0
2544 636 3 0 8.161466313954223 3.3134622185862317 34.78878742853247 3 0 -5
524 131 3 0 5.077079912300296 11.130095733901891 31.405726032091003 -1 -1 -2
1242 311 4 -0.7 12.389127983354884 3.811243131961267 42.38038745280599 0 -1 -1
1077 270 2 0.265 12.011840945864908 5.168730259044992 38.251887419235814 0 -2 2
1769 443 2 0.265 9.359460638240224 11.435454315569867 42.310013007490284 2 1 -4
257 65 2 0.265 2.672821735713121 6.269161111745279 39.116867970300575 -4 2 -1
1772 443 3 0 10.183207088201492 10.194169280230637 41.88841025768778 2 1 -4
1110 278 4 -0.7 11.620727314184647 10.204073337215096 38.80757399366351 3 0 -2
2843 711 1 0.435 3.9913068530541973 5.679388977155266 31.67897556039079 4 -1 0
1567 392 1 0.435 4.091663930002662 7.990762931333248 40.91413986382598 3 1 -1
302 76 4 -0.7 5.2913808104002085 5.83396042621858 32.89544714976526 3 2 1
461 116 2 0.265 7.802958416287771 8.093137567050809 37.70991531125931 -4 0 0
1109 278 2 0.265 12.485189555377163 9.0718521978888 38.55817232227665 3 0 -2
1568 392 3 0 6.054596380075247 9.054430674842418 43.1827720545906 3 1 -1
392 98 3 0 9.85002668955212 5.59278164570758 31.510622775309468 3 -1 -3
757 190 2 0.265 7.5186636285857835 12.96242482547251 35.18953993181408 2 1 -1
464 116 3 0 8.015594888817667 7.026200616045731 36.61769365611521 -4 0 0
758 190 4 -0.7 6.380291232547877 12.368421091421531 34.578689408764404 2 1 -1
2387 597 1 0.435 10.685615080806873 3.3065312857578104 43.258978870216524 4 -2 2
2542 636 4 -0.7 6.060827141651372 3.0346953326910877 33.81804690014076 3 0 -5
2047 512 1 0.435 12.829057947710403 5.206341069732504 33.56894218706023 2 0 0
1245 312 2 0.265 12.118040313337339 13.235813937880714 4.438240452446829 1 2 2
852 213 3 0 10.482612619439827 22.68628588477017 5.559479056804038 -2 -1 -4
692 173 3 0 10.685724602754803 13.242951672045477 15.840024992820783 1 4 0
1123 281 1 0.435 9.343503267474746 23.265232065320482 15.587084076878682 0 1 -1
2260 565 3 0 5.626156858756361 19.142976981731515 9.593260548074271 -5 2 0
1476 369 3 0 11.913709103971202 17.206659327221786 15.293441497277312 5 1 0
2402 601 4 -0.7 9.778849557994475 16.10699748444795 8.830915771786902 -1 1 0
1122 281 4 -0.7 9.875170308129235 22.678129528514013 16.128486247514196 0 1 -1
913 229 2 0.265 3.296217015119068 19.36675833097785 6.297099775675578 1 0 -2
2404 601 3 0 8.488604413687517 14.05065996773335 8.7179971547015 -1 1 0
2349 588 2 0.265 4.17246775684278 15.887295838258582 10.060239543696275 2 -2 2
1107 277 1 0.435 9.368864839849326 19.06275145169088 8.4137331839061 -1 -4 -1
849 213 2 0.265 10.703755242644798 22.180214428184826 4.137824521724541 -2 -1 -4
916 229 3 0 3.0101741089500007 17.982603853050275 5.697309557126315 1 0 -2
170 43 4 -0.7 6.694854307026355 16.17702712547922 12.765544640151695 -2 1 2
1108 277 3 0 12.157671243877799 19.008133698762542 6.685911471232665 -1 -4 -1
1734 434 4 -0.7 8.582542807168196 17.472903547436385 11.073043734782429 -1 1 3
1859 465 1 0.435 3.5194601635038043 13.792756335630179 11.605153639467773 3 0 6
1617 405 2 0.265 2.9110097478913106 13.434625870948528 15.289225631265035 -2 2 0
2350 588 4 -0.7 4.3025202733634185 15.063771031876591 11.222171855695105 2 -2 2
1340 335 3 0 6.583217014479834 20.124458108391202 15.965978117536181 -3 1 2
2257 565 2 0.265 6.839238816626569 20.105439297754927 9.463577289089642 -5 2 0
2259 565 1 0.435 7.644199131016215 19.724242737461434 7.73680439778215 -5 2 0
1121 281 2 0.265 11.065327555588722 22.448253238971635 15.323356230112129 0 1 -1
1470 368 4 -0.7 11.420324177426176 23.108634577969095 8.7024493570327 1 -1 3
1753 439 2 0.265 7.552413070111178 19.37508817444299 4.819078966001037 3 2 -3
1106 277 4 -0.7 10.18765559685542 18.605309251704533 8.242887681828066 -1 -4 -1
1754 439 4 -0.7 6.888622908494326 19.78242006619478 6.007399512467838 3 2 -3
914 229 4 -0.7 4.071980506012968 19.934893422334653 5.2547478861451795 1 0 -2
1736 434 3 0 9.323436574066182 19.207029333192203 12.776211038599717 -1 1 3
172 43 3 0 5.455323596343958 16.142050153802458 14.898355931630988 -2 1 2
1248 312 3 0 10.773022276822644 13.954022809407734 4.552699672276411 1 2 2
2403 601 1 0.435 9.912572744840219 17.02299103635847 8.590152390756018 -1 1 0
1105 277 2 0.265 11.259882326764048 19.533201565971446 7.838415933733229 -1 -4 -1
2352 588 3 0 4.799954988886159 15.278202540588754 8.799622729700697 2 -2 2
1733 434 2 0.265 9.684695211005927 18.04871597164687 11.79646285292706 -1 1 3
1472 368 3 0 11.139313332848714 22.969229635906725 10.991327300958018 1 -1 3
407 102 1 0.435 12.49303886586832 13.481299826884259 8.409384599783195 2 0 1
169 43 2 0.265 6.680903967603922 16.680478685825484 14.084428738174585 -2 1 2
1735 434 1 0.435 8.851042986349254 17.1300527528662 10.247646146833906 -1 1 3
1756 439 3 0 8.589263895565576 18.25671506923255 5.151285556107167 3 2 -3
2258 565 4 -0.7 7.9046821658345054 19.627572555711588 8.650707690856697 -5 2 0
2401 601 2 0.265 8.82584127274843 15.41980724610467 8.058894663265761 -1 1 0
2864 716 3 0 7.164811090097062 13.172733837408936 4.364155770192171 1 3 2
171 43 1 0.435 7.444357701532378 16.62277070040019 12.356264029500178 -2 1 2
1124 281 3 0 12.033599600286921 21.705229800508718 16.22545247119293 0 1 -1
1755 439 1 0.435 5.987065928544628 19.86805154922861 5.673180072972643 3 2 -3
915 229 1 0.435 3.8796045911277988 20.87853556765084 5.277614212029453 1 0 -2
2351 588 1 0.435 5.135244364868193 15.2807033583934 11.557200077402062 2 -2 2
1696 424 3 0 2.64293024451321 23.296845960342253 10.87305079852125 -1 -3 -1
1055 264 1 0.435 11.629606088086513 15.700821953968314 7.628576298081343 1 1 -2
1158 290 4 -0.7 3.333685871565886 22.780984653246694 5.217081548098967 1 0 1
1159 290 1 0.435 4.060638718209612 23.337193713786952 5.5004601695221655 1 0 1
845 212 2 0.265 2.420263487514274 19.242728410854124 13.068876126953782 0 -1 0
1858 465 4 -0.7 2.8636546403105934 13.140042612781594 11.844115037817868 3 0 6
581 146 2 0.265 10.813727359023316 13.193543323249353 11.90709189017725 5 -1 3
1469 368 2 0.265 10.456966312020915 23.292253207318755 9.663539711170035 1 -1 3
850 213 4 -0.7 9.719937774667168 22.88685608237401 3.409755630654655 -2 -1 -4
1054 264 4 -0.7 12.428707094898858 15.162929410782311 7.511205079443144 1 1 -2
1246 312 4 -0.7 12.323614680806315 12.980810761711975 3.0534467768621356 1 2 2
851 213 1 0.435 9.501698511772084 22.26525183834298 2.7166859777813244 -2 -1 -4
1474 369 4 -0.7 11.525822460081125 17.28701885935154 17.656181908382294 5 1 0
233 59 2 0.265 7.979679498086704 22.05513004360066 20.998633756052126 6 -2 -1
2573 644 2 0.265 5.308245439828736 19.204196341163943 21.862100900187492 -1 4 2
2851 713 1 0.435 3.3091795013044374 16.39584351257204 18.750820785676027 -1 0 -1
1338 335 4 -0.7 8.165325877075421 21.265648525584886 17.412642419788437 -3 1 2
2576 644 3 0 6.234191948542755 19.274201534440593 23.10615267439397 -1 4 2
1501 376 2 0.265 3.5958077116215392 22.593307273126086 20.787324724563664 2 4 -2
1812 453 3 0 9.454200838952993 15.701479222353491 23.284050602804413 3 -1 0
2575 644 1 0.435 6.344886983622269 19.998171414669592 20.448981465688018 -1 4 2
2264 566 3 0 7.570498045576988 15.624300122983534 28.333457559615173 -3 -4 1
1819 455 1 0.435 12.701704388672214 18.39178237922672 26.73279774587178 -1 4 0
2772 693 3 0 6.923528649995263 15.280354638409603 19.18914989180186 2 3 -4
1620 405 3 0 3.5553517251655045 13.354574879923629 16.65599816887176 -2 2 0
578 145 4 -0.7 6.598110103624922 19.170777193087552 27.851353108269205 -2 2 0
691 173 1 0.435 11.437731890199828 15.453422084191125 17.99257458839024 1 4 0
2084 521 3 0 12.413889934268932 22.06088845070358 29.695116319402672 -1 0 2
1809 453 2 0.265 10.078942347710257 16.011411427695336 24.694751227116544 3 -1 0
2771 693 1 0.435 5.697389412605491 17.589395689274607 19.866598837514477 2 3 -4
2742 686 4 -0.7 11.616103232720292 20.957630957085662 26.37571630165747 1 3 -1
2856 714 3 0 5.954652058738931 14.167668922029902 24.27783414675898 2 4 1
1475 369 1 0.435 11.277713953693148 17.972395339617513 18.21947944638847 5 1 0
577 145 2 0.265 6.479721739152163 20.50679557765441 27.344456164962885 -2 2 0
2770 693 4 -0.7 5.199634483340552 16.90128067384555 19.439042455458264 2 3 -4
1270 318 4 -0.7 4.076771093995651 18.381714749571138 27.571963764373706 2 0 -1
235 59 1 0.435 7.30124662364004 21.633717715000277 19.21419069000684 6 -2 -1
2251 563 1 0.435 3.646736726050794 20.360518650392674 25.1408202717902 1 0 2
1818 455 4 -0.7 12.566355295165113 17.433946456686172 26.66747205583688 -1 4 0
1339 335 1 0.435 8.8084709330166 21.732452259499873 16.9022267639916 -3 1 2
1173 294 2 0.265 4.111151613248959 23.220850170011637 29.21628818326549 0 -3 0
121 31 2 0.265 9.567712957784652 18.89684054363792 29.777210505898072 1 0 1
2769 693 2 0.265 6.105536093638976 16.350674675916334 18.4634002825648 2 3 -4
2261 566 2 0.265 6.743010601191634 14.328474108847512 28.524111883538286 -3 -4 1
1337 335 2 0.265 7.925177306107361 20.05101101982159 16.72512713872095 -3 1 2
2574 644 4 -0.7 6.056404659558469 19.10789486685016 20.657853209589014 -1 4 2
1504 376 3 0 3.4214176716923865 21.966391823016746 19.414644558695954 2 4 -2
1502 376 4 -0.7 2.7025006433676513 22.034526895867103 21.76879519363453 2 4 -2
1810 453 4 -0.7 11.453712816281508 15.663556013118365 24.750113006800305 3 -1 0
1803 451 1 0.435 12.011769142619437 19.13444262519654 20.087406840536858 1 0 -2
1811 453 1 0.435 11.919132169512718 16.225374025082033 25.405096865893622 3 -1 0
2744 686 3 0 11.063378736260997 20.002930308330864 24.211849071571585 1 3 -1
1319 330 1 0.435 3.9343630138419377 22.130603615328507 23.299410749166654 2 2 -3
579 145 1 0.435 5.648860138019343 18.905748109055416 27.94924349418126 -2 2 0
1318 330 4 -0.7 4.638252361778697 22.07689264740549 23.97531442956439 2 2 -3
2743 686 1 0.435 11.504518341019486 21.73937168418109 26.982900966239082 1 3 -1
234 59 4 -0.7 6.961154390016514 21.564208065326444 20.10416456407495 6 -2 -1
1269 318 2 0.265 4.518568029423788 17.114426753966548 27.0636683856159 2 0 -1
580 145 3 0 7.873375666232962 21.11639184057658 27.20774327035077 -2 2 0
1802 451 4 -0.7 11.196768845396187 19.060885169892003 19.57411970767985 1 0 -2
1317 330 2 0.265 4.493197795489527 23.265654471787176 24.729502378056726 2 2 -3
2741 686 2 0.265 11.01680218316282 21.232893370553732 25.112712306587827 1 3 -1
1804 451 3 0 8.944054473987492 18.252409637837584 19.667446479034023 1 0 -2
1801 451 2 0.265 10.155163208813331 18.76078244243043 20.488547980131113 1 0 -2
123 31 1 0.435 7.7835013868000384 19.130639295755472 29.60047339757907 1 0 1
1118 280 4 -0.7 9.879131948971317 13.558406206467524 29.933947015259616 2 3 -2
690 173 4 -0.7 11.23762258284085 14.481809967950566 17.900255276048096 1 4 0
1271 318 1 0.435 3.2453308396028064 18.69018288376954 27.25607011355077 2 0 -1
689 173 2 0.265 11.786681926298426 13.97705988028254 16.64233764285091 1 4 0
1869 468 2 0.265 10.332897555582068 12.990461417656782 20.774307334108887 3 0 0
2250 563 4 -0.7 2.9577821363882593 19.91285481974269 25.66215035333988 1 0 2
1473 369 2 0.265 10.991186103258384 17.725970607939974 16.431664570483438 5 1 0
1176 294 3 0 2.81133287250588 22.415106859533008 29.117427947656118 0 -3 0
1871 468 1 0.435 11.205614378995557 13.162441949507764 19.081233650551127 3 0 0
2396 599 3 0 11.811739809675403 23.14147236553968 19.9682527970342 2 -2 0
2262 566 4 -0.7 7.074472365818619 13.691942359347788 29.760750890702965 -3 -4 1
2082 521 4 -0.7 11.181649440159543 23.23373456834483 27.815647204871752 -1 0 2
1817 455 2 0.265 12.55035203168111 16.955322226152557 27.99915980847861 -1 4 0
2081 521 2 0.265 11.142561645818963 22.792754813415055 29.161200745528372 -1 0 2
1272 318 3 0 3.281177819856851 16.19896386743887 27.168433384760462 2 0 -1
2263 566 1 0.435 8.039467051036308 13.666533973396103 29.83631351567681 -3 -4 1
2850 713 4 -0.7 2.5459903925484384 16.104250939636515 18.256113072937787 -1 0 -1
1503 376 1 0.435 2.3694588142952573 21.21929403547908 21.456952918531037 2 4 -2
2853 714 2 0.265 4.883596456125945 13.019258815458286 24.236041355679017 2 4 1
214 54 4 -0.7 6.793719360618452 20.90963958742961 31.845849031381633 0 -2 2
2799 700 1 0.435 7.94540451419558 16.21107863840519 39.819707548532236 3 1 -3
2693 674 2 0.265 10.333523380381024 22.895322748442016 33.33037306196103 1 1 1
2212 553 3 0 3.3689595133421544 16.027369252623302 35.86993709164595 3 -1 -1
532 133 3 0 10.67199031598337 14.276045380305698 38.983739623135435 -1 1 3
229 58 2 0.265 9.371522322550547 20.45857230439405 41.81428933759268 2 -5 1
822 206 4 -0.7 11.82091260222988 14.382323904663236 31.52133192923117 2 -4 1
2211 553 1 0.435 5.269385848975595 17.953024541544643 37.562140467430154 3 -1 -1
215 54 1 0.435 7.364189252584651 20.232779198770587 31.54139867245292 0 -2 2
2530 633 4 -0.7 6.2287728871260235 18.521241612091714 38.910383323064565 1 -3 0
1448 362 3 0 2.290802981803601 22.83571154250078 33.91339151305817 0 -2 -1
1396 349 3 0 4.276466570409886 14.049873393469781 43.636965965538664 0 1 -1
2097 525 2 0.265 9.50063182166427 18.804927860606632 35.57572319312787 2 3 -5
1394 349 4 -0.7 3.0066924072088277 13.756565549304447 41.61541612171409 0 1 -1
2099 525 1 0.435 7.809539276709439 18.040833193845938 36.10122172238992 2 3 -5
2529 633 2 0.265 7.167803466453825 19.55732583415631 39.12152958421295 1 -3 0
824 206 3 0 11.769062966575257 16.41134387787828 32.79288759827085 2 -4 1
2666 667 4 -0.7 4.247329932150556 22.29975433835376 41.119727404136384 2 2 0
1119 280 1 0.435 10.381270818151819 13.793035599041799 30.716828443566506 2 3 -2
2531 633 1 0.435 6.317024776673784 17.77741859309939 39.50103099246434 1 -3 0
124 31 3 0 10.66610475577603 18.817801236006257 30.846353633732665 1 0 1
531 133 1 0.435 8.885155677687196 16.49008822300605 37.811451812476136 -1 1 3
2532 633 3 0 6.867799194011135 20.615471876254556 38.03629831448191 1 -3 0
186 47 4 -0.7 6.6213021129805405 17.79900664420299 34.457609267202756 0 0 -1
523 131 1 0.435 6.162157663788271 13.59181915686841 31.146629317030083 -1 -1 -2
760 190 3 0 8.546167420289038 13.375644534964422 34.127226751902924 2 1 -1
2798 700 4 -0.7 7.1868995543968754 16.282764577057193 40.38902144850515 3 1 -3
2100 525 3 0 10.95155066239478 18.274768055345 35.49152571714055 2 3 -5
2797 700 2 0.265 7.732588051400065 16.541521216253955 41.70249724788212 3 1 -3
187 47 1 0.435 5.878768193364314 18.00438799224426 34.98086877890006 0 0 -1
185 47 2 0.265 6.232676997781677 16.848374723517182 33.46871672645945 0 0 -1
530 133 4 -0.7 9.240025999183716 16.127460810156336 38.629927432421795 -1 1 3
2098 525 4 -0.7 8.725318881978922 17.977955585111086 36.41074748381037 2 3 -5
2800 700 3 0 9.042460150436778 15.794665736223966 41.98807029247594 3 1 -3
231 58 1 0.435 8.13366265741864 21.96137449361742 42.060121137859 2 -5 1
230 58 4 -0.7 8.859735099936348 21.550846333309906 42.54179105083419 2 -5 1
1606 402 4 -0.7 6.987877440741996 22.60865033428689 41.12510643874555 0 -2 -1
2209 553 2 0.265 4.080729846494242 16.593473556168505 37.0900686598397 3 -1 -1
2696 674 3 0 11.114030415204752 21.578436704986217 33.43487868934808 1 1 1
2665 667 2 0.265 3.8794371356073296 22.186978130356795 42.49687758572206 2 2 0
2376 594 3 0 11.333440935444449 22.235261953281732 36.900350598162476 1 -2 -1
2667 667 1 0.435 3.6358194203196423 22.79307468580432 40.547682061110365 2 2 0
2373 594 2 0.265 11.901851819521935 22.346351062593115 38.30984361261575 1 -2 -1
188 47 3 0 7.438815889601367 16.611394900927802 32.49678586267886 0 0 -1
2210 553 4 -0.7 4.843842617003521 17.75583268793663 36.7368401780429 3 -1 -1
823 206 1 0.435 12.785012317043801 14.342524102984058 31.61438413448136 2 -4 1
213 54 2 0.265 5.684470242802576 20.26837138609751 32.48580551560899 0 -2 2
2668 667 3 0 4.846444818588926 21.272600072029128 43.21260691666768 2 2 0
522 131 4 -0.7 5.606445593267744 13.406736010536855 31.890323136018665 -1 -1 -2
232 58 3 0 10.868011730540887 20.41818740385489 42.106153560062836 2 -5 1
821 206 2 0.265 11.319571090262363 14.928604046762125 32.72811916062615 2 -4 1
2003 501 1 0.435 6.997136049058329 22.655815279007417 31.192077244158686 0 0 -2
216 54 3 0 4.771015949917982 19.35631250320198 31.63631541316566 0 -2 2
529 133 2 0.265 10.617670595783743 15.699427359336587 38.40046672119931 -1 1 3
1607 402 1 0.435 6.020110260652659 22.553977637500367 41.081082048863635 0 -2 -1
122 31 4 -0.7 8.29947917068656 19.18878383111634 30.420407009450955 1 0 1
1393 349 2 0.265 3.0541325830101957 13.361890061631302 43.01123599184042 0 1 -1
1395 349 1 0.435 3.419902849918696 13.02039694650635 41.14212716379993 0 1 -1
224 56 3 0 6.181248080566698 12.989998728222117 39.827826125518015 1 -2 1
1570 393 4 -0.7 8.848171242730146 24.452747630484875 14.53912550338836 -4 3 -2
596 149 3 0 5.892536797264121 29.953880474648376 4.482329688498437 1 0 -1
411 103 1 0.435 4.848089226503898 26.176141735607562 11.842935573549003 -2 -4 3