LAMMPS data file via write_data, version 29 Aug 2024, timestep = 1000000, units = real

2486 atoms
7 atom types
1757 bonds
5 bond types
1028 angles
3 angle types
897 dihedrals
3 dihedral types

-0.29744412109323193 39.238564121080266 xlo xhi
0.04063671219583398 38.69647328778851 ylo yhi
0.14069214363499327 38.29752785635067 zlo zhi

Masses

1 1.008
2 15.011
3 15.999
4 1.008
5 14.011
6 15.011
7 15.999

Pair Coeffs # lj/cut/coul/long

1 0 0.4
2 0.239639 3.7543
3 0.174632 3.03
4 0 0.4
5 0.171477 3.4612
6 0.238761 3.6072
7 0.169017 3.1496

Bond Coeffs # harmonic

1 1000 1.4246
2 1000 0.9451
3 1000 1.9842
4 1000 1.71581
5 1000 0.95053

Angle Coeffs # harmonic

1 1000 108.53
2 1000 106.368
3 1000 90.95

Dihedral Coeffs # quadratic

1 1000 180 
2 1000 180 
3 1000 180 

Atoms # full

301 87 5 0.2556 2.3488605967779272 7.366437084917671 8.585852540259529 -1 -1 -1
735 209 5 0.2556 3.514516937899202 1.082271241081673 4.7128520101629245 1 1 -1
2272 658 3 -0.67874 3.8783753004600863 4.281813812566563 8.171928512050837 2 -1 0
279 80 1 0.43128 8.544723604348158 6.472731072102015 5.17271108929807 -3 1 0
1480 422 6 0 2.5267644595857415 4.032559169204449 1.3890615507793624 0 0 3
1782 507 6 0 5.291452266640596 6.617719594819726 5.30579315774664 0 -1 0
1781 507 4 0.44151 6.299823487439545 3.802497507619604 3.4136866661360012 0 -1 0
1780 507 7 -0.69711 6.134620793150269 4.711378589723959 3.6755929049983855 0 -1 0
304 87 6 0 4.252071286099536 7.677427765989683 9.05275733809106 -1 -1 -1
2273 658 1 0.43128 4.3592160305804075 3.5806287085677657 7.732436070208021 2 -1 0
204 59 1 0.43128 7.4999039599709025 6.0589044744708955 3.598706951446297 -1 2 0
1779 507 5 0.2556 5.421674354427943 4.639087175278846 5.235585165072968 0 -1 0
1477 422 5 0.2556 1.2249298202914927 4.634210766554454 2.7599881253238303 0 0 3
2345 682 1 0.43128 6.228335352819854 1.4114345998876403 3.144489271834708 2 2 2
303 87 4 0.44151 1.1356444591796253 9.161515569502457 8.276659188332511 -1 -1 -1
113 31 6 0 4.5903445856923195 0.717743590402536 12.379439750466194 0 0 0
2444 715 1 0.43128 2.5489835161508005 4.6411094123946395 7.197372657306359 1 0 0
1772 505 7 -0.69711 6.247880281602349 2.1497310496007276 7.631405258461289 1 1 1
302 87 7 -0.69711 2.0621735879350465 9.056872699805352 8.50556521739258 -1 -1 -1
1773 505 4 0.44151 6.652025862496679 3.0208507483150204 7.655948097181366 1 1 1
218 63 6 0 0.8676304287589118 9.636021294455567 4.122805528225589 1 0 0
88 25 5 0.2556 0.2920277965674497 2.544861165709768 10.630492554812019 0 1 -1
215 63 5 0.2556 2.0983595630208085 8.408652376530833 5.078890785555048 1 0 0
91 25 6 0 1.2901329627261975 0.9145335447000502 10.099388177835008 0 1 -1
738 209 6 0 1.5933160884504114 1.5730103244716087 4.784005714862531 1 1 -1
2276 659 1 0.43128 8.120175632045898 5.207441593884809 7.189802379666081 2 0 0
2343 682 2 0.24746 5.318275619848513 1.7784309135916283 1.4573744770971533 2 2 2
737 209 4 0.44151 4.653045985038532 1.4001160449762473 6.557151576471498 1 1 -1
202 59 2 0.24746 7.574659155628687 7.586629318247261 2.3874564214519283 -1 2 0
2275 659 3 -0.67874 7.641263586051742 4.592014085036923 7.745132526252156 2 0 0
2274 659 2 0.24746 7.331616922254328 5.2411622438806775 8.976143120493596 2 0 0
412 119 2 0.24746 0.7992804435586693 0.47293959823768045 0.6487675037049359 0 1 0
203 59 3 -0.67874 8.045267073435621 6.8382764546112105 3.5050215199600814 -1 2 0
146 42 2 0.24746 7.361772676754952 8.93219256576174 11.205168507373733 0 0 0
1771 505 5 0.2556 6.4517961019957735 1.4812860985199454 9.198348275786541 1 1 1
736 209 7 -0.69711 3.7268154642709685 1.558053976952515 6.348228920243984 1 1 -1
2271 658 2 0.24746 3.6924554727710093 3.91496617501173 9.536834983841901 2 -1 0
2344 682 3 -0.67874 5.947942507792563 2.191701671416062 2.668111368669313 2 2 2
1948 555 2 0.24746 8.803759579928451 4.528166359897426 12.227183911628856 -1 1 1
217 63 4 0.44151 1.2195527249152631 6.533517287001151 5.789943418910267 1 0 0
216 63 7 -0.69711 0.8324072039123374 7.272979630441818 5.310423189383103 1 0 0
2443 715 3 -0.67874 1.8130514056695572 4.984912530504048 6.689844381719274 1 0 0
278 80 3 -0.67874 8.871284145976714 6.389950220486064 6.069284236327534 -3 1 0
1478 422 7 -0.69711 0.10266997648225984 3.43573333824047 2.260821231177868 0 0 3
89 25 7 -0.69711 -0.09788250228761794 1.84842514713245 12.150582766864057 0 1 -1
1005 287 6 0 9.246645632060766 2.35387175797758 4.84465970934742 -1 -1 2
2235 646 2 0.24746 2.6541900179120157 6.431652613549909 12.80007380601029 1 1 1
2442 715 2 0.24746 0.6130944627618897 4.380797271201878 7.1682894860286455 1 0 0
1949 555 3 -0.67874 7.662615622112289 3.6874087845867467 12.383190646209124 -1 1 1
1018 291 1 0.43128 7.43444829211422 0.23668391226424756 4.0593257179868605 -1 0 3
1930 549 6 0 -0.28114303496527954 9.07739719581452 11.646697763622942 2 2 0
529 151 1 0.43128 -0.2520630740599492 8.3704643705398 6.9916998490077935 0 0 0
1950 555 1 0.43128 6.941005238431549 4.216327645648242 12.722395684063304 -1 1 1
2087 596 1 0.43128 6.252113635586794 4.938186867476907 21.364769731315274 2 -2 0
1185 339 7 -0.69711 2.133390828670037 8.764350081839039 16.327562960561565 -1 0 1
1197 343 2 0.24746 5.641061187149143 2.9547410424828136 24.6117720424654 1 -1 0
1702 484 3 -0.67874 3.215300036307566 6.432163636233638 22.593548006241967 0 1 -1
2237 646 1 0.43128 4.237251530702225 7.478605540215267 13.254701524978756 1 1 1
468 134 4 0.44151 5.237197645748025 5.378853975511757 13.605001970327704 0 2 0
2090 597 1 0.43128 7.958028966576784 2.027593000376715 25.171076007372864 -1 0 -1
2384 695 1 0.43128 3.6902044175908046 8.90674191535374 15.382771626551996 1 -1 0
467 134 7 -0.69711 6.013594666440681 5.014833036276919 14.043816668464007 0 2 0
180 51 6 0 3.3862524907282303 3.7815126597667024 15.819707673884796 0 0 0
392 113 2 0.24746 4.455857336644951 6.4757995767581225 19.297923052464007 1 0 -1
1701 484 2 0.24746 3.729982025238864 6.614476292768827 23.910512978637193 0 1 -1
890 254 2 0.24746 0.32134419712343354 6.167585173433905 17.934448515941884 2 0 -1
466 134 5 0.2556 6.263810465134212 5.971724967275122 15.446336463789317 0 2 0
2394 699 2 0.24746 6.84037144448792 7.783383419972625 22.87609789329304 1 0 1
2383 695 3 -0.67874 4.281827201710636 8.713743866818783 14.656499390061892 1 -1 0
2085 596 2 0.24746 7.920108136287723 4.215478263609889 20.657601605386777 2 -2 0
1885 537 4 0.44151 2.1704706950156423 2.9470912820408754 25.530474533782215 1 0 0
1284 367 6 0 3.5203670942352003 2.846706519085643 20.040035005331177 1 1 -2
1184 339 5 0.2556 0.7866151105141852 8.752051158767648 15.263823430516773 -1 0 1
469 134 6 0 7.849945320027256 4.888727108718437 15.943717806299814 0 2 0
177 51 5 0.2556 1.9893787751137193 3.1528277970017635 14.559455449401868 0 0 0
2086 596 3 -0.67874 6.9946062261974795 4.451586249313412 21.715898215411045 2 -2 0
1281 367 5 0.2556 1.773686075463004 2.1097231800000404 19.457229633396675 1 1 -2
178 51 7 -0.69711 0.9124078552525159 4.37873437372272 15.093287010643381 0 0 0
1199 343 1 0.43128 7.177439013750942 3.756475790692275 23.716533844811327 1 -1 0
45 12 6 0 9.383641208045342 1.1172761518101486 20.90843043734428 0 2 0
394 113 1 0.43128 4.3033990254462315 6.212568361236668 21.227186351896645 1 0 -1
539 154 4 0.44151 1.167788294567721 4.797451201993771 24.20464568581345 2 3 -2
949 272 3 -0.67874 4.715258229383025 0.41338765375403186 17.556755210657542 -1 0 -1
1634 465 5 0.2556 1.4825191102566881 0.4104262901431461 24.211328651138697 1 0 0
179 51 4 0.44151 0.10348160138810197 4.265757895430311 14.584371938087397 0 0 0
112 31 4 0.44151 4.418004544112878 0.29625053185340516 15.893731714612922 0 0 0
393 113 3 -0.67874 4.958948585960395 6.027594844671903 20.554391735501287 1 0 -1
110 31 5 0.2556 5.609739616530878 0.579992640313815 14.07628864011139 0 0 0
948 272 2 0.24746 5.807093280385142 0.8295401369143116 18.375764272160335 -1 0 -1
1186 339 4 0.44151 2.085789435091371 7.946978937607894 16.831367930795665 -1 0 1
950 272 1 0.43128 3.898500401845884 0.652221457788683 17.99552186556457 -1 0 -1
2236 646 3 -0.67874 4.064859733083204 6.6188215279894145 12.874307610088024 1 1 1
350 101 1 0.43128 6.005713134534897 9.208943428408503 25.191842574557967 2 -2 0
1703 484 1 0.43128 2.2979618868405947 6.165714559545216 22.661087475757547 0 1 -1
891 254 3 -0.67874 1.5128480740076922 6.268081281496111 17.15770534760414 2 0 -1
892 254 1 0.43128 1.4075564582688247 5.732449722172086 16.37011617874917 2 0 -1
538 154 7 -0.69711 0.8471744792681073 5.169205376280849 23.376322639484382 2 3 -2
2466 723 2 0.24746 8.622651389921177 0.8152128686406744 15.968606362262745 0 0 -1
111 31 7 -0.69711 4.156016385595766 0.3886927341688545 14.970327052634099 0 0 0
1198 343 3 -0.67874 6.966541372309071 3.478727481521028 24.605102165833458 1 -1 0
1637 465 6 0 2.9148816432153493 1.0878094557845022 23.01762129359223 1 0 0
2396 699 1 0.43128 7.997925210749404 8.518081244482815 24.2663585203703 1 0 1
829 236 5 0.2556 2.3047021540601693 9.65222856494726 25.42682546589825 1 1 0
2382 695 2 0.24746 5.350195491867248 9.65646021901071 14.681465514452064 1 -1 0
2089 597 3 -0.67874 8.272975919842713 1.1325284560169546 25.27980959430138 -1 0 -1
2395 699 3 -0.67874 7.183392196616723 8.779315021526969 23.836645259486975 1 0 1
1282 367 7 -0.69711 2.4921973083908586 0.5850173812005909 19.132249127029592 1 1 -2
1696 482 1 0.43128 0.23912355999174972 3.6855684519247323 22.476338231832564 2 1 1
1695 482 3 -0.67874 -0.06822007787613113 2.8390968345825534 22.152271950968853 2 1 1
1768 504 7 -0.69711 3.9397646165537745 6.716960104558953 35.09238082426025 0 -2 -1
1720 489 6 0 3.361613241799269 3.941970642203255 30.042622016932167 2 1 0
1883 537 5 0.2556 1.360886814878558 4.030926935521926 27.251264238578077 1 0 0
1886 537 6 0 0.8448893565925368 5.917523454518606 26.921425653061988 1 0 0
831 236 4 0.44151 4.1413851291419 9.67153554689326 26.61906686746345 1 1 0
895 255 1 0.43128 7.799535587017971 4.102285852024975 26.389531179114037 0 0 0
2350 684 3 -0.67874 0.2480736665437231 9.361820815745492 37.15371759626847 1 0 0
2133 612 2 0.24746 0.9884213077178485 5.040468843074078 36.691101520896765 1 0 0
403 116 4 0.44151 0.7127136431572532 7.768039299542284 29.74201268249607 0 1 2
2016 574 7 -0.69711 8.175438742292352 2.080377942918829 37.655613446808445 1 1 -1
1884 537 7 -0.69711 1.8571344167082748 3.8509901837327547 25.618649605451267 1 0 0
624 177 2 0.24746 7.342041688811683 0.9641122152267261 28.507657345320133 -1 1 0
402 116 7 -0.69711 -0.08106404806367012 7.227552066858048 29.736027019616966 0 1 2
1767 504 5 0.2556 4.2070603230330335 8.228067710035344 34.32188046132266 0 -2 -1
952 273 7 -0.69711 7.354541415628369 3.0150802397064447 35.12405826326944 1 0 -2
2154 619 2 0.24746 9.19552927969994 8.10424366770221 29.14276923450792 -2 0 1
2017 574 4 0.44151 8.753125584001285 2.6732614935846057 38.14665120885697 1 1 -1
1635 465 7 -0.69711 2.297461538317923 1.0250294977731778 25.5916398682025 1 0 0
894 255 3 -0.67874 8.187649851725018 4.076078633616631 27.265175117019872 0 0 0
1770 504 6 0 2.337570420800485 8.260841056392225 33.66020620158532 0 -2 -1
1636 465 4 0.44151 1.7488133174075022 0.7993810026218641 26.348902848769985 1 0 0
1719 489 4 0.44151 2.2133526776956556 0.6074456811438239 29.778494035288826 2 1 0
953 273 4 0.44151 7.555452514806271 2.5568225155639803 35.94723386680358 1 0 -2
2290 664 3 -0.67874 2.595090428345726 8.36583915751083 29.14508822297205 -1 1 -2
401 116 5 0.2556 0.27688616590421 5.8346829007449825 30.6722348581803 0 1 2
1717 489 5 0.2556 3.8693873651353616 2.0257968638829373 29.970079969346063 2 1 0
954 273 6 0 6.066666089973979 3.387940462148607 32.84612735386218 1 0 -2
1769 504 4 0.44151 4.768911335878117 6.480837010604472 35.51222802775384 0 -2 -1
349 101 3 -0.67874 5.679163499335684 9.352823453857587 26.082261590905965 2 -2 0
2155 619 3 -0.67874 8.426039928536136 9.297457848782276 29.267331443912497 -2 0 1
169 48 6 0 7.0339101911126 6.586829436309858 31.99428932664191 0 1 1
951 273 5 0.2556 6.095726676433549 2.1216481557810876 34.37217727807985 1 0 -2
2071 591 3 -0.67874 3.86926935605947 0.23483989009697792 33.00355485254387 1 0 0
1718 489 7 -0.69711 2.2213999352019025 1.5651434955305046 29.832580422310865 2 1 0
893 255 2 0.24746 7.356231996494654 4.823249144833693 28.1493868322304 0 0 0
1620 461 3 -0.67874 6.293289153320698 5.398371776110045 36.43539300891796 -1 -1 -3
1621 461 1 0.43128 6.4551592027877005 4.657196066441542 35.852448681310854 -1 -1 -3
167 48 7 -0.69711 6.931871267678635 9.20673655064416 31.623140760820537 0 1 1
2134 612 3 -0.67874 1.172598190353099 5.738092082992999 35.45981652038369 1 0 0
2135 612 1 0.43128 2.042093197582108 6.144391780851155 35.46810850089597 1 0 0
2020 575 3 -0.67874 0.03956030552481199 2.3634848603480045 31.379289940929304 2 1 0
1619 461 2 0.24746 5.619437730596281 4.920079695889976 37.59728097743558 -1 -1 -3
166 48 5 0.2556 7.1540721596415615 8.266293519826137 33.04312750444206 0 1 1
2291 664 1 0.43128 2.6619227298725274 8.98271394842376 28.41976494286866 -1 1 -2
2019 575 2 0.24746 0.2968040727529988 2.5024097564319034 32.773551900557585 2 1 0
2021 575 1 0.43128 0.8734351085936118 2.335087015792121 30.91954182521032 2 1 0
2015 574 5 0.2556 8.881198768364147 0.5197403437919585 37.76976396957681 1 1 -1
2156 619 1 0.43128 7.959937864725251 9.272154823055283 30.103493500791547 -2 0 1
1983 565 4 0.44151 8.5928282483421 4.521269080696958 34.52304135683207 0 1 2
1046 299 3 -0.67874 0.3920593476331762 0.6894626479079555 27.30014579802338 -1 -1 -2
2349 684 2 0.24746 0.8388181197005105 8.443621119006217 38.070681230963864 1 0 0
2289 664 2 0.24746 3.686418469549858 8.592967355883232 30.033512509683913 -1 1 -2
1982 565 7 -0.69711 9.201677154405695 5.251104367094946 34.36909846358427 0 1 2
2072 591 1 0.43128 3.3563364838080525 0.04578597632634232 33.79327077114048 1 0 0
1944 553 1 0.43128 -0.2453510113757891 5.769922924355763 34.26708080872532 1 -1 -1
1981 565 5 0.2556 9.335825500848957 6.088534256117394 35.861116912289475 0 1 2
1047 299 1 0.43128 0.537314131265493 0.8009240874917054 28.240883840266754 -1 -1 -2
148 42 1 0.43128 6.1166121120324854 10.420788311846355 10.990824445611597 0 0 0
265 76 6 0 8.008111488272059 16.281595228318036 5.841239269359483 -1 -1 -1
704 200 3 -0.67874 4.667238981094693 18.900983908188575 9.47768191721693 0 1 0
1381 394 7 -0.69711 2.184881082500513 18.077462384225374 9.87894934880592 1 1 0
2212 638 3 -0.67874 3.785542981958617 10.843696542695577 8.261197426925039 2 1 1
703 200 2 0.24746 4.948160135113598 18.609890253021646 8.110782416040855 0 1 0
1403 400 1 0.43128 5.259836042555178 12.313472683560859 3.5932869401699263 0 1 0
2122 608 3 -0.67874 4.402824889351224 10.886024402300054 10.759430241423726 0 0 -1
1380 394 5 0.2556 1.669879594943579 17.08392141979092 8.57653127219498 1 1 0
1545 440 4 0.44151 7.739119081194977 17.46868976966417 1.5605901991277564 1 -1 1
2126 609 1 0.43128 5.420577328510051 15.012811911210116 6.894556203166183 0 0 -1
2459 720 1 0.43128 8.094213368056524 11.762533888781274 10.96702561120847 -1 1 -1
362 105 2 0.24746 0.5680995907329447 12.571236305988446 9.837490857089737 0 0 1
1402 400 3 -0.67874 4.401282378078491 11.900417882212583 3.5248712822546526 0 1 0
2457 720 2 0.24746 7.92901049288497 13.70489033051905 10.819387868664716 -1 1 -1
1546 440 6 0 5.160590966535747 15.043465715524293 1.7017159170201033 1 -1 1
71 20 3 -0.67874 6.937561672629401 12.731611272107305 4.175000480146513 -3 0 0
1808 515 5 0.2556 2.819259453310016 19.20626249523026 3.997175406066345 1 2 2
1265 362 4 0.44151 6.5844072941118466 13.056498099012883 7.346449537661406 0 1 -1
147 42 3 -0.67874 7.039366497865285 10.320248750890153 11.224583054014142 0 0 0
2125 609 3 -0.67874 5.884023733192964 14.681624297809016 7.660464178113562 0 0 -1
70 20 2 0.24746 8.240055746239365 12.704256989946119 3.5965896840186256 -3 0 0
1382 394 4 0.44151 3.075170424017274 18.37057876396703 9.658034055284393 1 1 0
1809 515 7 -0.69711 4.0502792123342015 18.010741169105447 4.04250930313137 1 2 2
1543 440 5 0.2556 6.603293219234724 15.976527735354257 2.693872437924951 1 -1 1
2124 609 2 0.24746 5.037818497331124 14.826554466758413 8.798429855054467 0 0 -1
2123 608 1 0.43128 4.145515288265492 10.812440735168423 9.840124650055511 0 0 -1
705 200 1 0.43128 5.43325589894576 18.66629570709187 10.00176382873432 0 1 0
1401 400 2 0.24746 4.5871720603543 10.518085106924389 3.2324938652429656 0 1 0
1811 515 6 0 1.4176084906180313 17.82328330080135 4.242721543684991 1 2 2
396 114 3 -0.67874 4.355387560169598 15.745881165192094 5.760904148773592 1 -3 0
1216 349 2 0.24746 0.24054097168779232 17.92032688232482 0.7717547015426663 -1 0 0
1264 362 7 -0.69711 7.033749718743506 12.434489397920213 6.769100748538829 0 1 -1
395 114 2 0.24746 3.610875009212489 14.769229674091736 5.0380745458126865 1 -3 0
2211 638 2 0.24746 3.5701382586636345 11.47493859185907 7.002753087367521 2 1 1
2121 608 2 0.24746 3.227484908948203 10.814100719291867 11.5630711915251 0 0 -1
397 114 1 0.43128 4.222122638139738 16.59857067820932 5.344337006194324 1 -3 0
1266 362 6 0 7.927880505239351 10.052629251279816 6.049100254745924 0 1 -1
263 76 7 -0.69711 9.173374175257896 18.65326685293692 5.757114113478076 -1 -1 -1
476 137 2 0.24746 8.32807868733896 18.177577949471083 10.336712060940961 0 0 -2
478 137 1 0.43128 6.908465352399512 18.327366631100347 11.669111853246564 0 0 -2
1263 362 5 0.2556 6.926498347868108 10.903446651544154 7.535157737132938 0 1 -1
1544 440 7 -0.69711 7.006325731342711 16.8975819319916 1.301850389598964 1 -1 1
1810 515 4 0.44151 4.884228401391068 18.479368605163504 3.9348784041409197 1 2 2
1383 394 6 0 -0.07781181138775473 16.7673777871641 9.460583594551512 1 1 0
2213 638 1 0.43128 3.139388310072856 10.146245729053113 8.365119608964777 2 1 1
2458 720 3 -0.67874 8.697446548504873 12.506548844577393 10.909419590744932 -1 1 -1
511 146 4 0.44151 9.02142535587529 18.14156416381469 3.7799933205849556 2 -1 -1
72 20 1 0.43128 7.0232707581704865 12.604967456501852 5.120501002389998 -3 0 0
477 137 3 -0.67874 6.955562305852696 18.238016794528573 10.71670142171612 0 0 -2
551 157 6 0 0.24604852636376917 13.277945958792493 5.969231955529046 -1 1 -1
510 146 7 -0.69711 9.482582163575936 17.95322033365391 2.9601921140866074 2 -1 -1
835 237 1 0.43128 1.7484688706661533 19.29921028849242 10.848994749384088 0 1 1
712 202 1 0.43128 7.32243194271757 19.307312324564208 5.12805364443611 2 -1 0
1277 366 5 0.2556 4.21538601123547 11.160220633333932 21.755415224894602 1 0 0
617 175 2 0.24746 8.11419477072512 11.044241421018452 21.38291804856734 2 0 0
1221 350 1 0.43128 6.591838161734371 15.74856498260207 15.690706653384769 1 0 1
2182 628 3 -0.67874 5.497986644672782 15.3746771323962 19.64049480840545 2 2 0
1962 559 3 -0.67874 0.8331549511864926 18.699688349601132 23.081934341939128 1 1 -2
2200 634 3 -0.67874 4.704388511134993 15.106191926388412 15.705046449549519 2 2 2
619 175 1 0.43128 7.659925305776474 10.53517348161662 23.208097124210493 2 0 0
1220 350 3 -0.67874 7.438651341486825 15.440717846746525 16.00921579999027 1 0 1
618 175 3 -0.67874 7.501867419736659 11.286854100573345 22.64595841283758 2 0 0
2183 628 1 0.43128 6.08214328074251 14.866462407287909 19.07606495838247 2 2 0
1280 366 6 0 2.3834961578321123 11.625983049374764 22.357972534132188 1 0 0
2054 585 1 0.43128 5.919350311600829 16.051524219623197 21.26783699135048 1 -1 -1
1176 336 6 0 4.159317439013233 17.425195214277753 13.350019791693272 2 0 -1
1187 339 6 0 1.3158079974774737 10.512701555998458 14.518593504965555 -1 0 1
1219 350 2 0.24746 8.46522926469743 16.121151413534314 15.29062839878219 1 0 1
2052 585 2 0.24746 5.448364101166172 15.841119045564312 23.15286008236219 1 -1 -1
903 258 2 0.24746 7.64608792288633 12.598201126761502 17.902376151268015 0 0 2
2199 634 2 0.24746 4.605898765995372 14.045581070114762 14.757944044833154 2 2 2
632 179 1 0.43128 0.06627902502879651 15.585001814242665 20.97510490490272 -2 1 0
1278 366 7 -0.69711 4.8993121994796525 12.009194650924577 23.081098498994457 1 0 0
2435 712 1 0.43128 4.201597581910536 12.7952632686159 24.60634966204664 2 -2 0
2201 634 1 0.43128 3.8226538204300633 15.396761814845158 15.92685030632313 2 2 2
1412 403 2 0.24746 0.5189443282572161 10.066032210848084 19.691820607881947 4 0 1
200 58 3 -0.67874 6.286504587078324 19.15067898777691 21.54845389208967 -2 -2 -2
1174 336 7 -0.69711 6.453408188413243 18.74291180503948 13.288288114274623 2 0 -1
1757 501 2 0.24746 7.243616294949327 13.942508013871493 25.383085114433765 1 1 0
1242 356 4 0.44151 1.7716210085638817 18.589537745733434 24.833014752705324 0 -1 0
2181 628 2 0.24746 4.1711017493158735 14.880585035925066 19.47792049218495 2 2 0
1182 338 3 -0.67874 0.5350914332580141 15.8285826486729 22.702706844779073 -1 1 1
252 73 5 0.2556 5.051179505933775 18.74446305631787 16.617521949280384 1 -3 -2
905 258 1 0.43128 7.440029053789376 14.502966753272405 17.526317435399147 0 0 2
1453 414 1 0.43128 1.320083155685552 15.163108704174602 17.162292541575027 2 1 2
2053 585 3 -0.67874 6.092144888587096 16.529179153731395 22.081389153878337 1 -1 -1
1279 366 4 0.44151 5.850366942797237 11.91736796745883 22.995806066344677 1 0 0
1451 414 2 0.24746 1.9012868118554938 16.855911581829254 16.382552203002014 2 1 2
904 258 3 -0.67874 7.429843593319124 13.94799058560003 18.306408797055372 0 0 2
1452 414 3 -0.67874 2.097315138210171 15.481368128209851 16.703914472547055 2 1 2
1241 356 7 -0.69711 2.1570580222026114 18.02060063495827 25.508379950460917 0 -1 0
1181 338 2 0.24746 1.8156664562318277 15.388326296619043 23.151271337860866 -1 1 1
1963 559 1 0.43128 0.7872786953575726 17.747735019094744 22.986012025681166 1 1 -2
1183 338 1 0.43128 -0.13779018495125117 15.366599320296922 23.206277279943436 -1 1 1
2434 712 3 -0.67874 4.010832001513262 13.39324345873167 25.32432156236884 2 -2 0
201 58 1 0.43128 6.133759161486136 18.211401842918455 21.650630751920975 -2 -2 -2
1633 464 6 0 9.192814881700373 16.569568475368186 19.461745222867457 0 0 0
1173 336 5 0.2556 4.828204547169022 19.28470725425169 13.173513142077505 2 0 -1
631 179 3 -0.67874 -0.276872437982505 15.909028945141317 20.141403277158357 -2 1 0
1304 373 1 0.43128 7.340185724818303 17.58982754753847 35.307591179803204 0 -2 0
240 69 3 -0.67874 4.263877922454505 12.242910201906366 33.77570664118576 -1 0 0
2433 712 2 0.24746 2.696212062733158 13.11943771640824 25.802982458007037 2 -2 0
925 265 2 0.24746 8.674298814613525 14.452661802725741 36.03478358395589 -2 0 -1
1836 523 5 0.2556 1.8382069655590665 15.375469321551812 33.4119347864665 1 -2 -1
2000 570 2 0.24746 5.938408454460755 15.130236881732833 32.22387222208497 2 -2 -1
391 112 1 0.43128 6.8242634139718295 14.237108317484644 27.934862674796268 0 -1 0
267 77 7 -0.69711 6.242251675947254 17.293190569122256 36.83269407291737 -2 0 0
319 92 7 -0.69711 1.287016460774343 11.717858848028373 36.55924649215518 1 0 -2
269 77 6 0 4.307201847558716 17.102736805765332 35.03891310909657 -2 0 0
1839 523 6 0 2.084750478142286 15.185201621941978 31.452426412277646 1 -2 -1
1618 460 1 0.43128 8.534799676408968 15.016835159391233 29.28708804490066 0 -1 0
268 77 4 0.44151 6.6070867974892336 17.29465454841045 37.72035177806592 -2 0 0
1240 356 5 0.2556 0.8390379825428949 17.32254639131631 26.35838666419474 0 -1 0
1243 356 6 0 2.0846562289476305 16.324413538491946 27.53628121936937 0 -1 0
2002 570 1 0.43128 6.813945859756338 14.254913364548823 33.72839810811075 2 -2 -1
389 112 2 0.24746 6.798418292923246 13.044435743427254 29.484941207498974 0 -1 0
1124 322 5 0.2556 -0.019921296508373487 11.249307693403122 29.96583219306532 -1 0 0
1758 501 3 -0.67874 6.213627465388567 14.226735057418528 26.32591051010494 1 1 0
266 77 5 0.2556 4.556190366989658 17.01806663620098 37.005131964285916 -2 0 0
514 147 3 -0.67874 0.5950855569229253 12.23531102408688 33.82626469111795 0 -1 0
926 265 3 -0.67874 7.692451795321725 14.851834741005872 35.081403721001074 -2 0 -1
1217 349 3 -0.67874 1.1810790276953715 17.6799502609762 37.88380788468947 -1 0 -1
2041 581 4 0.44151 7.421372702795484 12.514398357882884 32.747711379585475 -1 0 1
335 97 2 0.24746 5.121434532904793 10.736324760251701 37.04892213147191 0 2 0
239 69 2 0.24746 3.7534879175910705 11.911644238305923 32.48564674888679 -1 0 0
1302 373 2 0.24746 8.570198193306934 18.910926362656653 34.57253878817242 0 -2 0
1303 373 3 -0.67874 8.004808266289906 17.603181313728246 34.62554738113695 0 -2 0
1617 460 3 -0.67874 9.299458982358265 15.581110226302295 29.183159082952496 0 -1 0
2329 677 3 -0.67874 8.890176204104614 17.41520069966924 27.166170263610933 1 0 1
321 92 6 0 2.3358455565232203 13.995940791882983 37.4038994411272 1 0 -2
1759 501 1 0.43128 5.397361679306406 13.862769264997326 26.00007198465651 1 1 0
337 97 1 0.43128 5.221360453750334 11.357531055052716 35.19805137224272 0 2 0
1126 322 4 0.44151 0.19397829044702863 12.442806974413061 31.788253652670083 -1 0 0
320 92 4 0.44151 1.0367209363840328 10.79155271016718 36.63988472313654 1 0 -2
515 147 1 0.43128 1.0522233309268263 12.379698667549652 34.652881279581734 0 -1 0
318 92 5 0.2556 2.034820247971334 12.142810529930241 38.045111357752816 1 0 -2
390 112 3 -0.67874 7.292171674780082 14.176989017452168 28.77132320735267 0 -1 0
2001 570 3 -0.67874 6.42290166053032 13.977392418848519 32.90689265914296 2 -2 -1
2151 618 2 0.24746 5.560147192166586 17.55260009159868 26.195811780063345 -2 2 -2
241 69 1 0.43128 5.038834198320814 12.794782350879522 33.66164523941275 -1 0 0
927 265 1 0.43128 7.296621832838445 15.671428205708834 35.37903647626386 -2 0 -1
168 48 4 0.44151 6.954659895035737 10.125428959266321 31.902539444662057 0 1 1
2153 618 1 0.43128 3.860601912690007 18.429348670070535 25.80169013442583 -2 2 -2
2152 618 3 -0.67874 4.742449253746974 18.71067761496131 26.046579357803047 -2 2 -2
2040 581 7 -0.69711 7.960478699016756 11.728694732929162 32.61115056534843 -1 0 1
348 101 2 0.24746 6.636107251356783 10.136973495125353 26.79351373201063 2 -2 0
1218 349 1 0.43128 1.5722723799429847 18.51777380719618 37.62894447750807 -1 0 -1
1837 523 7 -0.69711 0.6420863444860301 16.58473531924722 33.17536526110758 1 -2 -1
513 147 2 0.24746 0.0066086349622700435 10.938270325212953 33.85693997451856 0 -1 0
336 97 3 -0.67874 5.8133831574464345 10.921686422881676 35.814767990378 0 2 0
1864 531 4 0.44151 -0.037963754197558985 16.933836425374185 36.759810662832514 1 2 -1
1346 385 4 0.44151 -0.07852051052022122 17.458886070636353 31.722570768347808 0 1 0
2330 677 1 0.43128 9.075276048457445 16.80181048794557 27.87733498863531 1 0 1
1838 523 4 0.44151 0.3527461626713496 16.850112788147065 34.05019351944765 1 -2 -1
832 236 6 0 0.6078438608035986 9.777748369255454 26.446426502775665 1 1 0
830 236 7 -0.69711 3.2182106222428244 9.719785335406835 26.879691527485168 1 1 0
2465 722 1 0.43128 8.892013981190654 18.907697705761638 28.208149371997457 1 1 1
1125 322 7 -0.69711 -0.26539405776388447 12.622964893618466 30.964932554117237 -1 0 0
556 159 5 0.2556 5.447612585195421 26.42376767470386 2.395808641966917 0 0 3
1044 298 6 0 4.5174526804334505 22.923257530768876 7.342344294030741 0 0 -1
2058 587 2 0.24746 5.811738160073494 27.985314267752635 9.870917903395897 2 2 -1
1902 542 7 -0.69711 3.3377483974535753 21.72557826775328 2.258367290710571 1 3 0
1053 301 4 0.44151 0.010849455814091302 28.119715248914442 0.2115642496801084 0 0 2
976 280 2 0.24746 5.498443466403687 22.507625432264486 11.091890473752738 2 -1 -2
2337 680 2 0.24746 1.8311748298131607 25.43999328997339 9.618401259640214 2 2 0
2062 588 3 -0.67874 1.2528638959306095 22.91446967225867 3.9687192910002262 2 4 1
1465 418 4 0.44151 7.374855477050077 24.8521637177269 4.204649914184941 1 -1 1
1901 542 5 0.2556 4.651321806194886 22.74188935130193 1.8258827033908105 1 3 0
710 202 2 0.24746 6.035530250720652 20.69219471433311 4.637634723690856 2 -1 0
1074 308 5 0.2556 8.108146427980651 22.730480942495156 8.06431806589941 0 0 0
2338 680 3 -0.67874 1.1248896590134378 24.758970482355608 8.583969596114128 2 2 0
2059 587 3 -0.67874 6.98591537251312 27.228582079862715 9.584912000895761 2 2 -1
978 280 1 0.43128 7.179323448271302 23.46298866364326 11.342229135027948 2 -1 -2
557 159 7 -0.69711 6.354499990364421 24.994955906038914 2.677521724521754 0 0 3
558 159 4 0.44151 6.996035376999191 24.9374165095192 1.9644366599086736 0 0 3
1052 301 7 -0.69711 0.26676887984708764 28.194116395552093 1.1371599779268635 0 0 2
1965 560 7 -0.69711 9.19116185663611 27.584482604843682 0.85523520106052 0 -1 -1
1042 298 7 -0.69711 5.971053510035134 24.848005594828145 8.42874119948639 0 0 -1
2061 588 2 0.24746 0.07195608918194035 22.532402146459585 3.2679244397887395 2 4 1
2248 650 3 -0.67874 8.52410244905243 20.648980941142558 12.745326771585047 0 -1 2
995 285 7 -0.69711 1.2107700096001082 21.979128986097944 6.933128558684962 0 1 0
1903 542 4 0.44151 2.7808186290444104 22.24252638261115 2.8485061797071007 1 3 0
1051 301 5 0.2556 -0.028648599509080053 26.65813395416066 1.8427162977153002 0 0 2
1959 558 3 -0.67874 9.39533687548024 28.659744397825968 9.98404942216815 1 2 1
1041 298 5 0.2556 4.485094692468026 24.893250775915117 7.56932440133584 0 0 -1
977 280 3 -0.67874 6.823645046351213 22.61742908501338 11.603264886442966 2 -1 -2
1076 308 4 0.44151 9.028877013443388 23.5085836645043 6.23287893980416 0 0 0
1094 313 3 -0.67874 8.059162928864492 24.796323974810754 0.6829347173193723 -2 1 2
2060 587 1 0.43128 7.746320356343533 27.792348842376967 9.709857024942812 2 2 -1
834 237 3 -0.67874 2.009074361035065 20.006624840645618 11.436162397548356 0 1 1
1054 301 6 0 0.6149034977849576 27.30728861606494 3.603532684562471 0 0 2
2219 640 1 0.43128 7.869073329678715 25.91745929402056 10.40148614932147 1 1 -2
833 237 2 0.24746 1.7828506916558173 21.248885738704548 10.776198369532278 0 1 1
1077 308 6 0 8.925619537027785 21.086060823429786 8.816362476760501 0 0 0
2218 640 3 -0.67874 8.284115057354825 25.156755299976567 10.810969491799977 1 1 -2
559 159 6 0 4.358032802914756 26.091091177164753 4.020349223647745 0 0 3
1463 418 5 0.2556 9.048056931160014 26.226328544474182 4.537232570095788 1 -1 1