LAMMPS data file via write_data, version 29 Aug 2024, timestep = 1000000, units = real

2723 atoms
7 atom types
1994 bonds
5 bond types
1265 angles
3 angle types
1608 dihedrals
3 dihedral types

-1.0338737095328554 39.97499370952688 xlo xhi
-0.6793980886287265 39.41650808862276 ylo yhi
-0.5700478645017348 39.00826786450688 zlo zhi

Masses

1 1.008
2 15.011
3 15.999
4 1.008
5 14.011
6 15.011
7 15.999

Pair Coeffs # lj/cut/coul/long

1 0 0.4
2 0.239639 3.7543
3 0.174632 3.03
4 0 0.4
5 0.171477 3.4612
6 0.238761 3.6072
7 0.169017 3.1496

Bond Coeffs # harmonic

1 1000 1.4246
2 1000 0.9451
3 1000 1.9842
4 1000 1.71581
5 1000 0.95053

Angle Coeffs # harmonic

1 1000 108.53
2 1000 106.368
3 1000 90.95

Dihedral Coeffs # quadratic

1 1000 180 
2 1000 180 
3 1000 180 

Atoms # full

1758 488 4 0.44151 3.1109458922161117 9.322535144502755 2.243121525215238 0 -1 1
1756 488 5 0.2556 2.7333241495224216 7.165663648237727 2.217540403333122 0 -1 1
1275 365 6 0 8.212444441140867 7.864293904447674 2.9550178049675213 0 0 2
876 252 2 0.24746 1.2076497470147949 5.386338162612446 8.169695292571351 1 0 0
737 212 6 0 5.819717124640267 1.3649216899494312 8.470246517211882 0 0 0
1321 378 2 0.24746 4.9736227903302765 8.016817416131019 6.799603700551142 1 -1 1
1047 300 1 0.43128 5.1640704422783354 1.6483677413225877 0.26575993875852777 1 1 -1
1757 488 7 -0.69711 2.6987130492680924 8.743832201204736 2.892787140611912 0 -1 1
514 147 3 -0.67874 0.8549583573192743 7.164166336519995 11.034629662206482 0 2 0
2238 608 4 0.44151 7.105445215131073 3.411096382077033 6.177534839333156 2 0 -3
2332 632 5 0.2556 3.748224378827267 3.107563372865385 4.185934615091016 1 0 -1
1315 376 4 0.44151 0.2584232521582759 5.563144477590845 -0.16430154304037575 0 -1 1
2213 602 7 -0.69711 5.830486107536248 7.074537804097629 -0.05945944403454284 0 1 0
1051 302 2 0.24746 -0.08731635208885524 1.4158309727230591 4.678500598959508 1 1 -1
1046 300 3 -0.67874 5.4419702905252185 2.2920886616354217 0.920073014136412 1 1 -1
1147 329 4 0.44151 5.570621225367383 4.145121724630278 8.104940454344622 -1 0 1
1795 497 6 0 1.0358689321812458 0.9497548478259625 11.240396266584357 1 -1 0
736 212 4 0.44151 3.2207595247605347 3.749688342015915 8.76899673104904 0 0 0
522 150 2 0.24746 2.7151694029156346 4.198028532627902 0.6192763145773337 2 1 2
1145 329 5 0.2556 6.77555750572573 5.495010850966125 9.343558434146768 -1 0 1
513 147 2 0.24746 1.1174964821565556 8.016880583711323 12.145778219548452 0 2 0
2334 632 4 0.44151 5.026197648895483 3.295386150718178 2.4238915797902933 1 0 -1
1146 329 7 -0.69711 6.431607983281251 4.550824307462074 7.950901653607055 -1 0 1
2237 608 7 -0.69711 7.7743719988041775 2.7651081000936557 5.943685330579242 2 0 -3
2333 632 7 -0.69711 4.948750113989513 3.8410035258400823 3.201831025434358 1 0 -1
1272 365 5 0.2556 7.300665044508854 6.3527326409411735 3.860889782417069 0 0 2
878 252 1 0.43128 1.108587193451918 4.710210016832903 9.997147804177333 1 0 0
2395 647 6 0 6.02870910006514 9.235969798841483 10.994917490252858 1 0 0
735 212 7 -0.69711 4.099448120909912 3.35618189662138 8.726870404923197 0 0 0
1759 488 6 0 1.8387135169286548 6.418990225551409 3.822190197517565 0 -1 1
877 252 3 -0.67874 1.551212942793403 4.453098597996841 9.191172655333665 1 0 0
1607 450 6 0 2.785990715055026 0.16090524857677868 0.8379259745948164 2 -1 1
1052 302 3 -0.67874 0.513988876519138 2.664840257022885 4.3469608030390825 1 1 -1
142 42 5 0.2556 7.459943093631594 1.8382458949105667 11.981364379529895 -1 1 -1
1045 300 2 0.24746 6.8590675816607485 2.210231530633816 1.0606316910031957 1 1 -1
2392 647 5 0.2556 7.875282758430474 9.168468709605976 11.716385990917988 1 0 0
2214 602 4 0.44151 6.074074110671094 6.808767292979764 0.8312916577248106 0 1 0
1274 365 4 0.44151 5.595429313929846 5.483634924339398 2.7938660279048846 0 0 2
1314 376 7 -0.69711 -0.7011724517695778 5.616937488852937 -0.1609612909743302 0 -1 1
2335 632 6 0 3.9614226993326183 4.523264035409133 5.559692752489905 1 0 -1
1273 365 7 -0.69711 6.185536486962485 6.209352110030368 2.5636778235328004 0 0 2
734 212 5 0.2556 3.8606163106231213 1.6749702754769538 8.483484416561087 0 0 0
1053 302 1 0.43128 -0.18033362609903714 3.3014869704969114 4.179717130414144 1 1 -1
515 147 1 0.43128 -0.029771909081550696 7.345503095851599 10.715591434770362 0 2 0
523 150 3 -0.67874 1.9701209880741262 4.963234299795396 -0.3254131435317166 2 1 2
1322 378 3 -0.67874 4.875751661736776 9.263718430154219 7.487536944798821 1 -1 1
2212 602 5 0.2556 6.008658597378367 8.77987277183043 -0.11784193224422168 0 1 0
2393 647 7 -0.69711 8.495675811500618 8.75301935362524 10.171378739307897 1 0 0
2236 608 5 0.2556 8.840255841041037 3.550866880208482 4.8507045306397965 2 0 -3
1148 329 6 0 8.51141227292719 6.065229603661702 8.570951166195957 -1 0 1
793 228 1 0.43128 8.258383791635062 1.259250171928528 7.144752540231569 -1 1 0
1347 385 3 -0.67874 5.911627266029731 -0.2585002100830051 5.033445499271634 0 2 1
1348 385 1 0.43128 6.814538419902772 -0.09393636309922304 5.296872688782326 0 2 1
792 228 3 -0.67874 8.775104116774724 0.7248870103682992 7.751127932015587 -1 1 0
1628 456 5 0.2556 0.9497741376135422 7.210425582765312 21.354169238016574 2 -2 0
540 155 4 0.44151 0.8908519376062145 2.5439867449278712 18.21396043163961 1 2 0
1698 473 4 0.44151 8.839916979118431 7.207605244736011 16.71719259687191 0 1 -1
143 42 7 -0.69711 8.462513442719827 2.8667401382335687 12.921441529475747 -1 1 -1
1772 492 5 0.2556 6.130250378668016 6.381981042951531 13.25855866286453 1 0 1
2505 675 7 -0.69711 8.523908076597213 5.400474624542049 17.456368628991257 0 0 1
1409 401 7 -0.69711 7.3069354796063966 4.300099310630271 21.638370043864203 1 1 -1
2695 722 6 0 -0.8467523261051162 1.853318476663619 22.580594510622074 1 1 0
145 42 6 0 8.270843031928182 0.23157791270591155 12.814610302874861 -1 1 -1
179 51 6 0 0.36058467271496597 -0.15944972739346375 19.485581191180028 1 -1 -2
2322 629 4 0.44151 5.354710003946315 7.539580175893972 22.834990638061996 -1 0 1
2321 629 7 -0.69711 5.527328628506651 8.481843562890452 22.898756808095417 -1 0 1
44 13 2 0.24746 5.348592686855901 0.99522457693062 19.099868451266495 2 0 1
1793 497 7 -0.69711 0.7892419893708569 -0.6498958131316308 13.330611828068196 1 -1 0
797 229 6 0 8.204969558118156 1.9246640903511083 24.124628196034575 0 0 0
114 34 5 0.2556 0.5541160217251828 6.042405178569843 16.9379802672586 -1 -1 0
2648 711 5 0.2556 5.345518885924162 8.672522529407487 15.959199836770061 1 1 0
1774 492 4 0.44151 8.146662924565247 5.651824148356579 12.81234464437491 1 0 1
1410 401 4 0.44151 7.006062453882047 3.404748167040064 21.823959350089304 1 1 -1
2506 675 4 0.44151 8.709158146500302 4.555703772905908 17.038641222849932 0 0 1
1217 349 3 -0.67874 4.9511013297626505 5.814559894500803 22.13348155285608 2 -1 3
2504 675 5 0.2556 6.83717874227256 5.416130370373956 17.77714507640519 0 0 1
1697 473 7 -0.69711 9.125769020704523 7.934659285872128 16.156318497784866 0 1 -1
117 34 6 0 1.4428591496651046 7.760615238251473 16.499266849921813 -1 -1 0
177 51 7 -0.69711 1.7188129299196686 0.9786786055182652 17.520755193248092 1 -1 -2
2310 626 4 0.44151 2.0412212283860707 0.2550885025558237 14.472904487135722 0 0 1
2196 598 5 0.2556 9.120233297582029 1.5910535311181286 16.405704362384622 -1 1 0
2197 598 7 -0.69711 8.610456389106835 3.1462658319576042 15.885443677604197 -1 1 0
796 229 4 0.44151 6.603707332879429 0.9199509999145048 21.13488630346863 0 0 0
1899 523 6 0 2.892498114340629 1.9203353345316745 23.331988120618096 0 1 -1
1216 349 2 0.24746 4.260438417531473 5.928445633995672 20.89097599441431 2 -1 3
1218 349 1 0.43128 5.780532797060954 5.368067648053877 21.97874918361487 2 -1 3
2311 626 6 0 4.208480850496353 2.8180121533061584 15.590519688372972 0 0 1
1630 456 4 0.44151 1.7216151371441315 7.132681470916571 19.306615794674205 2 -2 0
2309 626 7 -0.69711 2.6315266520379708 0.7711073525678622 15.028263030713642 0 0 1
178 51 4 0.44151 2.2421749896737384 0.9846016535446043 16.71669370672796 1 -1 -2
795 229 7 -0.69711 6.839724041267854 1.427923614815322 21.915261404953878 0 0 0
2692 722 5 0.2556 -0.847451085473375 3.8263553991629564 22.78357631216746 1 1 0
1896 523 5 0.2556 2.8387805002432995 0.6402391120378208 21.817498560240253 0 1 -1
1631 456 6 0 1.0343578400258062 8.979561479095535 22.246375518072362 2 -2 0
115 34 7 -0.69711 1.7778889420939574 5.667833002303843 18.080873552177575 -1 -1 0
2507 675 6 0 6.9697182872473 7.227966145570423 18.574178259196795 0 0 1
1775 492 6 0 4.635785574155922 5.201866290065991 12.701088592130636 1 0 1
952 273 1 0.43128 3.652008391412826 5.545950786375669 24.342540069497954 0 0 2
1408 401 5 0.2556 8.988437194474379 4.324505033147265 21.98218932029013 1 1 -1
1411 401 6 0 9.101265672806733 6.2392501458590806 21.474546847568213 1 1 -1
2320 629 5 0.2556 4.20670115218171 9.15520218597379 23.762750222542635 -1 0 1
2567 690 6 0 8.302140970549774 7.725230055976349 25.39612103340936 1 0 0
1629 456 7 -0.69711 1.6566650982875664 7.861584868698374 19.932742920040145 2 -2 0
2308 626 5 0.2556 3.0821853385053064 2.1435826715933426 14.102961260148987 0 0 1
950 273 2 0.24746 1.723747755414446 5.252373325658911 24.401563874713297 0 0 2
539 155 7 -0.69711 0.532303345644523 3.3267982043124533 18.639501967862675 1 2 0
2198 598 4 0.44151 8.484305832241768 3.08306532653915 14.93252308257044 -1 1 0
951 273 3 -0.67874 2.9175144076819777 5.886304588471662 24.851343354164026 0 0 2
144 42 4 0.44151 8.23282928394839 3.7681567471137782 12.672221119795136 -1 1 -1
116 34 4 0.44151 1.5445253111997594 4.811596230977954 18.454436304142522 -1 -1 0
1245 357 1 0.43128 2.7065983745736055 8.993747364540857 19.324758032304363 -1 1 -1
45 13 3 -0.67874 6.227306765663519 -0.00533612069431344 19.608546309518353 2 0 1
794 229 5 0.2556 8.095025354002347 0.5550169518059163 22.69411234901403 0 0 0
2036 558 5 0.2556 -0.6458355953087063 2.218236977059965 15.007732560120688 -1 1 0
1773 492 7 -0.69711 7.280148197157731 5.266195938605121 12.642920480206529 1 0 1
2650 711 4 0.44151 7.444203477043464 9.272660511592138 16.046875415084443 1 1 0
2039 558 6 0 0.08837678683642847 3.888495214309618 14.230135329428697 -1 1 0
46 13 1 0.43128 6.567982030274198 -0.5128263641469928 18.871112574451228 2 0 1
630 182 1 0.43128 1.4269020898799152 -0.5406358303206663 24.449211257912165 0 -2 0
1897 523 7 -0.69711 2.619052605742799 -0.675321940538808 22.898337198594778 0 1 -1
176 51 5 0.2556 1.3801314603874384 -0.6689702120333862 17.86176672179661 1 -1 -2
2455 662 6 0 1.2370171236387817 8.450918003272236 27.479272545274686 0 0 0
2614 702 4 0.44151 4.618810463568458 5.672948908916771 28.944533878888294 -1 0 0
1143 328 4 0.44151 6.466913909880306 4.1495531999789055 27.64314287142559 1 0 0
320 92 3 -0.67874 -0.390955094998521 5.570114866739119 31.51942488435021 0 0 0
886 255 5 0.2556 2.9882601175720405 3.0721053656024755 32.496996523688935 1 -1 0
155 45 7 -0.69711 7.208849190844553 2.8037887308307843 30.68138633578544 0 -1 1
1142 328 7 -0.69711 5.555365335740266 3.944798946051786 27.863911562742903 1 0 0
156 45 4 0.44151 7.354774646534789 3.5535709928765327 30.103065925461504 0 -1 1
2000 549 5 0.2556 5.34398404904308 5.333362565652162 32.22825296933442 1 -1 1
2453 662 7 -0.69711 -0.2727014505569968 7.391103820227942 29.375242946436373 0 0 0
62 18 4 0.44151 3.3818475640597 7.209412853458083 32.766122295304555 0 0 2
175 50 6 0 6.538534749825269 1.485827705282794 35.33663781351092 0 2 -1
574 165 6 0 2.939358977340765 3.239056904984594 36.71219630175182 -1 -2 -1
61 18 7 -0.69711 2.475515725485936 7.037791824598569 33.03781136005968 0 0 2
60 18 5 0.2556 2.4578403164519287 7.139605411482628 34.7522035758205 0 0 2
1606 450 4 0.44151 5.3647234561295125 0.038174664385415835 37.99606210308521 2 -1 0
321 92 1 0.43128 0.10053535190535245 4.938153711846169 32.043107158693616 0 0 0
154 45 5 0.2556 5.652675620621564 2.1929184520486813 30.292534550373436 0 -1 1
524 150 1 0.43128 2.568803100292288 5.27585124148811 38.5778725824638 2 1 1
888 255 4 0.44151 2.0581644610938734 5.0171171407172634 32.883369937207675 1 -1 0
571 165 5 0.2556 4.663259204118817 3.8445494698834173 37.485545919823664 -1 -2 -1
1141 328 5 0.2556 4.810357355706396 3.4293115590381165 26.406669444929264 1 0 0
2003 549 6 0 6.1685520307341895 5.524437913290577 34.021547723927654 1 -1 1
2530 681 4 0.44151 5.93946268312254 8.633039275217367 32.610929476005495 0 0 1
2454 662 4 0.44151 -0.451071543592621 6.8203251944717005 30.1288547079737 0 0 0
2615 702 6 0 5.384727995888739 9.125242238639185 29.000846671779353 -1 0 0
2204 600 5 0.2556 8.499112436325426 8.000474862892169 34.93314938513808 1 0 -1
573 165 4 0.44151 4.854331779135899 5.9975873367832016 37.821952073713746 -1 -2 -1
887 255 7 -0.69711 1.7168099477227998 4.223894400413243 32.45611946677563 1 -1 0
2612 702 5 0.2556 5.034347080244904 7.532765994242933 27.870760144889644 -1 0 0
572 165 7 -0.69711 4.132484663609018 5.476247883560363 37.46603367848101 -1 -2 -1
1144 328 6 0 3.0850372679240454 3.153168616698903 27.346412495835164 1 0 0
1458 413 4 0.44151 8.538960833814903 5.380763832224569 28.678798813087678 1 0 1
1605 450 7 -0.69711 4.8142033144536605 0.33194816234953395 38.728638831371796 2 -1 0
63 18 6 0 0.5144462111255395 6.739256339733924 34.7911460874066 0 0 2
2336 633 5 0.2556 9.119347417825184 8.088815736249394 30.198541605397505 0 1 1
1457 413 7 -0.69711 8.243791931460786 4.511507961124007 28.396064205627596 1 0 1
172 50 5 0.2556 7.048896830964175 -0.43070277114203964 35.30492410517763 0 2 -1
1459 413 6 0 8.520687595454216 1.924569312460485 27.924948088720477 1 0 1
2613 702 7 -0.69711 4.813888052997256 6.55615262195136 29.26388228068176 -1 0 0
2215 602 6 0 5.428257749306817 8.80813739841391 37.563705891844464 0 1 -1
2188 596 5 0.2556 -0.529125066341393 0.8790583134929595 37.763272009108306 3 -1 -1
2001 549 7 -0.69711 5.2244714810514115 7.037916672776897 32.06836804294694 1 -1 1
889 255 6 0 1.8530737809747753 1.7363339780950762 31.568119656235144 1 -1 0
157 45 6 0 5.8311225189564855 0.7696254548323296 31.66301069444504 0 -1 1
2002 549 4 0.44151 4.8230565555512035 7.198511482099707 31.209322086866386 1 -1 1
2452 662 5 0.2556 1.3766833667511147 7.1474341868027365 28.96784244984861 0 0 0
628 182 2 0.24746 0.6519492611216893 -0.12337467965466298 26.19261187764495 0 -2 0
173 50 7 -0.69711 6.61824980679063 -0.6009521450975006 36.957158998385154 0 2 -1
469 134 4 0.44151 9.217196547723644 1.2846481948499127 31.390778313273444 1 1 -1
830 238 6 0 5.2943394024774175 10.526962148981053 3.342161464277625 -1 1 0
1830 506 4 0.44151 3.3185907404008876 9.978497023337054 7.246296031048795 1 2 0
1013 291 2 0.24746 3.9163070357096688 18.216390559161514 7.114308118780223 0 0 2
110 32 1 0.43128 4.358967941178787 17.69165236065117 11.87067923739064 1 0 1
1323 378 1 0.43128 5.756739555791575 9.541727688016463 7.738816562055105 1 -1 1
1389 396 7 -0.69711 7.567229583734511 11.037330032413827 8.639579459004711 1 1 -1
92 27 2 0.24746 8.537974545605387 11.94149182217793 5.0418455388046155 0 -1 0
106 31 3 -0.67874 2.7623569239116454 12.430356172679442 8.624505744523354 1 0 -1
107 31 1 0.43128 2.6232641951689195 11.787277817795703 7.928990825551688 1 0 -1
1388 396 5 0.2556 7.124531174515338 12.270879820825707 9.747343298396357 1 1 -1
1815 502 6 0 0.8783991578872328 14.522713741489229 0.46055548012277847 0 -1 3
109 32 3 -0.67874 5.261866536507424 17.969642622254728 11.989290168478297 1 0 1
1376 393 5 0.2556 2.490194910237771 16.513527607973685 10.10173944989985 0 1 0
1015 291 1 0.43128 3.9881263651723904 16.26920611745999 7.01531940438221 0 0 2
1390 396 4 0.44151 8.042042369836516 10.378206602502827 9.146632843696496 1 1 -1
827 238 5 0.2556 5.143006621953533 11.557462833592835 1.6547384421514573 -1 1 0
1812 502 5 0.2556 0.2031020521156064 13.38726291105173 1.9406933897550842 0 -1 3
102 30 7 -0.69711 3.552984831309133 14.443853201792464 6.865139294323436 1 -1 0
1379 393 6 0 3.8745574954850035 15.186206069032373 10.609666490636116 0 1 0
829 238 4 0.44151 3.5029883674317475 10.976889073046937 0.32191363490340885 -1 1 0
2717 728 7 -0.69711 0.49135621770047955 18.75407670702165 11.150179780949681 1 0 1
1423 404 6 0 0.10418176047213046 17.40482969617174 7.792470239115973 1 1 -1
475 136 2 0.24746 7.825439021175226 16.93535681931237 5.8227153995168575 0 0 1
104 30 6 0 4.068803008937759 15.350057510118582 4.435431568460896 1 -1 0
1377 393 7 -0.69711 2.6808577695398363 17.33157153291899 11.598626216465444 0 1 0
1952 537 5 0.2556 -0.8845109019814557 14.467431288631524 5.631623499532422 2 2 1
828 238 7 -0.69711 3.7767551108901154 10.63260722264048 1.1805378258593182 -1 1 0
476 136 3 -0.67874 7.164857791643824 16.67583626943345 7.059205721549813 0 0 1
101 30 5 0.2556 4.465956451204569 13.77558550991195 5.574773026529002 1 -1 0
2558 688 4 0.44151 7.917841183977483 16.19523796750047 8.361309268934024 0 -1 -1
1014 291 3 -0.67874 4.6054862982734175 16.97253116041607 7.20792497070511 0 0 2
1829 506 7 -0.69711 2.721445337779133 10.571544220319371 6.781055050597802 1 2 0
2488 671 5 0.2556 7.8354691784692765 18.358107665146818 1.185798408173575 2 2 0
1828 506 5 0.2556 1.6705591095832748 9.573652229273089 5.864013726414828 1 2 0
1391 396 6 0 6.241112042815222 13.30208422577944 8.300744488195942 1 1 -1
393 114 2 0.24746 1.4447084214059718 18.634865489655596 -0.2021376167377235 -1 0 -1
477 136 1 0.43128 6.23514547598205 16.886882789552885 6.956818655613823 0 0 1
2556 688 5 0.2556 7.73819765305511 17.28268060599862 10.250201626779424 0 -1 -1
2557 688 7 -0.69711 8.432325427037798 16.147424229511874 9.16708573839558 0 -1 -1
105 31 2 0.24746 3.335641232408495 11.764201356636123 9.746491258053874 1 0 -1
103 30 4 0.44151 3.6026059043288905 13.809576765688224 7.587019513172226 1 -1 0
2718 728 4 0.44151 -0.1867884471826291 18.223221820878138 10.727331199554285 1 0 1
1831 506 6 0 0.7237371325276545 11.167369691117901 5.157275771686868 1 2 0
1719 478 6 0 0.7366871669961061 19.102359777884814 4.501131332318557 1 0 1
2203 599 6 0 5.492521029185832 14.91656208636691 0.5573998814841779 0 0 0
2489 671 7 -0.69711 7.2867032590224206 17.936108167207227 -0.3849533423710897 2 2 0
1378 393 4 0.44151 2.067282085559811 18.066339074568276 11.58237159056809 0 1 0
2559 688 6 0 9.070543957066326 16.81754610291605 11.644333965733436 0 -1 -1
2627 705 6 0 4.318462019817753 18.1537099305088 1.6466782980841659 0 0 -1
592 171 2 0.24746 8.684572353994737 12.948690434146318 1.6321359072993995 -1 -2 0
2491 671 6 0 9.13556945700792 16.861712612115653 1.1671127924731022 2 2 0
2449 661 7 -0.69711 -0.4471917269139444 11.722890636276134 22.28898360089174 0 -1 0
2323 629 6 0 4.997833819522397 10.969274049445785 23.625635158278612 -1 0 1
615 177 1 0.43128 8.213745830299654 18.60601102265701 17.130672041438217 1 -1 0
2563 689 6 0 5.526991508160613 15.829932892257215 20.28434859635754 1 0 -3
108 32 2 0.24746 5.299089764881288 18.95848977784367 13.014019500880993 1 0 1
75 22 5 0.2556 0.9914181593763112 18.75570742218782 14.679198608505981 -1 0 0
2384 645 5 0.2556 0.614215288422407 16.334120565983824 19.275178964605253 1 1 0
1243 357 2 0.24746 4.392100863990897 9.801386526767564 19.890426857143446 -1 1 -1
2448 661 5 0.2556 0.5026823115296664 13.070612277528811 22.76837812212116 0 -1 0
1180 339 7 -0.69711 2.539851626026091 15.873142959959019 25.40019339397089 -1 1 -1
2564 690 5 0.2556 7.757283092614454 9.626006751527244 25.22984466547041 1 0 0
613 177 2 0.24746 6.337031088418643 18.78605133104025 16.62913243158627 1 -1 0
2649 711 7 -0.69711 6.710567881157346 9.63552560927136 15.560321232420687 1 1 0
2561 689 7 -0.69711 4.988567027789089 18.198937118254687 21.33086950381728 1 0 -3
1352 386 6 0 6.693620439363676 15.482404565041627 24.401630568393045 1 1 1
2496 673 5 0.2556 3.5986994880698893 12.960527228678338 16.95241224027446 2 1 -1
1436 408 5 0.2556 -0.050851719631094694 10.668469357120276 19.21584075310382 1 0 1
2498 673 4 0.44151 1.444962908926263 12.573742845196875 17.022969301935166 2 1 -1
1196 343 6 0 6.4843786035573405 14.380448347020726 13.349155169919035 1 0 1
2562 689 4 0.44151 4.434497284268754 18.96348234017143 21.516313142010542 1 0 -3
164 47 6 0 9.103074712446928 17.970643595412188 21.290225898564664 0 1 0
729 210 3 -0.67874 9.176705004484111 16.484824929078652 16.755247409466374 -2 -1 0
1257 360 6 0 7.8309379463088415 12.978442031866983 19.61713286289822 1 1 1
1848 511 5 0.2556 0.13969122076067597 13.840993940221326 14.450459909051766 1 1 0
2497 673 7 -0.69711 1.9480469854557905 13.378666920339104 17.172037594402642 2 1 -1
2560 689 5 0.2556 4.035253523330008 17.134100600820574 20.38066627341524 1 0 -3
1254 360 5 0.2556 6.899578806328421 12.697155065354385 17.887886019654918 1 1 1
1850 511 4 0.44151 -0.44277328268411675 14.567041098984095 16.43166380369868 1 1 0
1437 408 7 -0.69711 0.916925445331634 10.694094650414385 17.798432228136328 1 0 1
1179 339 5 0.2556 3.09149931686685 15.053056038507341 23.99665566461046 -1 1 -1
2451 661 6 0 2.0283514782373437 12.434023502676865 21.67128494218994 0 -1 0
1182 339 6 0 1.8607259423256934 16.109568921514676 22.853688827828442 -1 1 -1
614 177 3 -0.67874 7.533492736416957 19.268186662386736 17.23621815160674 1 -1 0
1849 511 7 -0.69711 -0.810732501052855 13.873135981860026 15.878348849132514 1 1 0
2499 673 6 0 4.159095973739441 14.823278437446852 17.34177678732014 2 1 -1
1349 386 5 0.2556 8.169407051637632 14.736922380197534 23.30502469736708 1 1 1
2386 645 4 0.44151 0.9102744999475316 15.100035930831824 17.496557904379966 1 1 0
1438 408 4 0.44151 1.8072574928954026 10.456617796901542 18.076734690129367 1 0 1
1194 343 7 -0.69711 6.708379816635089 12.216595798828708 14.852791622350578 1 0 1
2385 645 7 -0.69711 0.2804025086390629 15.790360264475744 17.68059144587005 1 1 0
1244 357 3 -0.67874 3.2315367395704238 9.751497441369763 19.06487917564877 -1 1 -1
1195 343 4 0.44151 6.6243834275310505 11.275109786316365 15.046881266724556 1 0 1
2651 711 6 0 4.1861408238290725 9.764286480035768 14.777266650381819 1 1 0
1193 343 5 0.2556 6.114678609858252 12.433408596703986 13.256878577331152 1 0 1
2267 615 6 0 3.6994624643908622 18.659300736880912 24.500471329781988 2 -1 0
1255 360 7 -0.69711 8.392911280632193 12.735812812822662 17.043447897754884 1 1 1
1256 360 4 0.44151 8.17961896327709 12.61049938423838 16.112617990180222 1 1 1
1851 511 6 0 -0.9546927360154073 12.358288931733425 13.714813316348081 1 1 0
1350 386 7 -0.69711 8.560127732924126 13.611361807294772 24.54123592781522 1 1 1
2387 645 6 0 -0.8583529752686483 17.659088756534754 19.168617378020784 1 1 0
728 210 2 0.24746 9.164011820008513 16.22685889126607 15.354502328262491 -2 -1 0
77 22 4 0.44151 -0.2138574657541037 19.306438849162053 12.9365664824872 -1 0 0
239 69 1 0.43128 2.5966871065547683 18.75046974334096 37.11876933170693 1 0 0
1181 339 4 0.44151 3.030671481864734 15.502802251866761 26.138887799861227 -1 1 -1
358 103 3 -0.67874 4.9310690752462465 16.568385805527328 28.886070701051214 0 0 -1
2205 600 7 -0.69711 8.064537167172398 9.66091830073144 34.980600769504136 1 0 -1
2066 565 4 0.44151 3.033967997595357 12.660503913336425 38.44925361332682 0 3 0
2202 599 4 0.44151 3.171695167249397 14.679765683713203 37.47239909462732 0 0 -1
2251 611 6 0 0.9805808816456252 14.814436753441457 29.306617227957847 0 -1 0
394 114 3 -0.67874 1.0014551717313367 18.788344079904697 38.0308012182835 -1 0 -2
554 159 1 0.43128 7.746149846486654 10.710378407511383 36.43308604512556 -1 2 2
499 143 7 -0.69711 8.128600735361944 12.715436326625618 27.06831368725433 0 1 0
2528 681 5 0.2556 5.5556804586475845 10.678109633150106 31.930431064254474 0 0 1
756 218 2 0.24746 2.403070123765602 12.657527804811878 33.10267210902805 1 1 1
485 139 5 0.2556 0.2608142679568719 18.997640989827396 26.204343123887437 1 0 0
357 103 2 0.24746 5.367885667413112 16.32261981077098 30.22080440649528 0 0 -1
669 193 1 0.43128 2.123473682774864 15.588649558438007 35.05376793372463 0 1 -1
486 139 7 -0.69711 1.465408182980136 17.98443829659605 26.886799236383407 1 0 0
403 117 2 0.24746 8.741158725574735 15.389024135883169 33.23600238260279 -1 0 1
404 117 3 -0.67874 7.680130433142976 15.996572075888505 32.503925504338426 -1 0 1
2531 681 6 0 6.192849410740037 12.125282024679837 33.128912552876685 0 0 1
500 143 4 0.44151 8.242364760020712 13.175354710744376 26.232569573414445 0 1 0
359 103 1 0.43128 4.513836483304782 17.42980737977277 28.85710747530236 0 0 -1
2566 690 4 0.44151 8.537274488497939 10.984383487215897 26.76211349032479 1 0 0
395 114 1 0.43128 0.08924516611297029 19.063477192554927 38.04338749098142 -1 0 -2
2272 617 5 0.2556 2.2720162355730413 17.64714595076285 32.852344030458625 1 0 -1
276 80 4 0.44151 2.3679316276829243 18.518859324919376 28.424469054733223 1 2 2
2274 617 4 0.44151 3.5230626383207575 15.999950186364185 33.562686764365424 1 0 -1
668 193 3 -0.67874 2.2079813943146696 15.510294193881588 36.00451382131975 0 1 -1
757 218 3 -0.67874 1.4596577500320276 13.69007093986728 32.81990409867315 1 1 1
487 139 4 0.44151 1.6889922896618255 17.336992588284822 26.20921814283348 1 0 0
1344 384 4 0.44151 4.297527264687657 15.484639344459815 27.821331902774112 1 2 0
667 193 2 0.24746 0.9056624132524762 15.567177952362893 36.57925953290564 0 1 -1
2273 617 7 -0.69711 2.578375638287529 16.05363791739249 33.409967729754825 1 0 -1
365 105 3 -0.67874 5.164164071491928 15.547210422792485 33.72141766227409 -2 1 1
366 105 1 0.43128 5.955953259949062 15.378114718010767 33.21023361158039 -2 1 1
501 143 6 0 7.267142685320634 12.452924460913076 29.557233592763936 0 1 0
2064 565 5 0.2556 1.37417219127423 11.38328511897377 37.80714077824835 0 3 0
2275 617 6 0 0.33263423469436293 17.256681350794295 32.70037150861532 1 0 -1
2065 565 7 -0.69711 2.8646954068900716 11.723725537233813 38.587993996455026 0 3 0
758 218 1 0.43128 1.92205561987686 14.530642498342289 32.814317829276746 1 1 1
1345 384 6 0 2.9320818032900147 12.399066459810111 26.761694983006183 1 2 0
553 159 3 -0.67874 7.95091688001086 11.166107515407598 37.249746353275356 -1 2 2
1343 384 7 -0.69711 3.823691106786967 14.82730303932891 27.30575150170177 1 2 0
2201 599 7 -0.69711 3.7224144351513475 14.446004933712096 38.22691119310049 0 0 -1
2430 656 4 0.44151 8.185221006478303 18.00128997321129 37.392857725241825 1 -1 1
767 221 7 -0.69711 8.57856019650267 18.63778887389406 32.53997727423385 1 1 0
364 105 2 0.24746 5.3671188728168095 15.054013775564048 35.04374497660115 -2 1 1
498 143 5 0.2556 7.229052677106301 13.773717402094489 28.077765317756572 0 1 0
275 80 7 -0.69711 3.1936047398977117 18.69609787445953 28.888442784137467 1 2 2
1342 384 5 0.2556 4.012467061386078 13.337247238828073 28.13557917136775 1 2 0
2200 599 5 0.2556 4.584000571777525 15.868708250763365 38.65112103990795 0 0 -1
405 117 1 0.43128 7.809445781429098 16.94618955444226 32.51426270412391 -1 0 1
2248 611 5 0.2556 0.15058864540069838 13.113492569500941 29.901806413912702 0 -1 0
238 69 3 -0.67874 3.440876674346388 19.15844038144999 36.95110682931214 1 0 0
2067 565 6 0 1.484537063113467 9.478666223616028 38.35338654427318 0 3 0
552 159 2 0.24746 6.944081903576753 12.149213398436006 37.481425770078644 -1 2 2
237 69 2 0.24746 3.7461795798958235 19.01294989104944 35.566673133716264 1 0 0
2206 600 4 0.44151 7.579110192324066 9.834963727165087 34.16888917148812 1 0 -1
2529 681 7 -0.69711 6.148172637720328 9.482834771017684 33.01010230137115 0 0 1
2565 690 7 -0.69711 8.657908783244393 10.036875344403693 26.631743500824662 1 0 0
1476 418 5 0.2556 -0.6274150333360275 9.618195739902323 32.050820655875725 -2 1 0
2490 671 4 0.44151 6.5977468787332665 18.573104454091915 38.969421901801894 2 2 -1
2429 656 7 -0.69711 8.981991174697962 17.921470196160943 36.857799069395895 1 -1 1
2158 588 4 0.44151 5.558486233571812 28.45036207250068 9.054441507498442 1 -1 0
2716 728 5 0.2556 1.0540099082193528 19.853269055875067 9.95721520391579 1 0 1
1009 290 5 0.2556 7.56615819383379 24.10855102673911 2.327160426141674 -1 0 0
903 259 7 -0.69711 3.8706726955542132 28.589774876524057 8.471009628619278 1 1 1
904 259 4 0.44151 3.240434230137727 29.281261538134675 8.696536144693065 1 1 1
562 162 7 -0.69711 9.088169272746095 21.543894517367875 5.757174082610118 -1 0 2
2713 727 7 -0.69711 0.007028828346457905 23.4396723562205 9.147984444034806 1 0 2
1717 478 7 -0.69711 -0.8911920877246422 20.86253079536052 5.616091010733248 1 0 1
2156 588 5 0.2556 6.609254396816395 28.254811767026222 10.964839301910297 1 -1 0
974 280 5 0.2556 6.77938613580246 24.895934449522493 11.015301018332826 0 0 1
2624 705 5 0.2556 4.502147905142047 19.9973853025908 2.3557348196808414 0 0 -1
308 88 6 0 5.007476514631839 27.402114408945202 4.147498442740055 -1 0 1
564 162 6 0 7.796084021681544 20.342934034447943 7.729243815417767 -1 0 2
1716 478 5 0.2556 0.6294314934404845 20.244995286229127 6.1190238606920335 1 0 1
483 138 4 0.44151 -0.995488313552312 25.431094787957228 2.938606967137849 -1 1 -1
2626 705 4 0.44151 5.4583803523971195 20.178062509957222 4.318936114868406 0 0 -1
305 88 5 0.2556 5.009701924005249 28.324547015081276 2.3908569489386324 -1 0 1
484 138 6 0 1.228239248895854 25.44854309488099 5.688025177508346 -1 1 -1
2159 588 6 0 8.576720144165636 28.498718801384054 10.901260164654488 1 -1 0
306 88 7 -0.69711 6.0842517722794 27.153280317791115 1.745291154250551 -1 0 1
1672 467 5 0.2556 8.750662244715922 26.414132131519246 6.1793470818837575 1 -1 0
1539 433 6 0 4.303042480850687 23.71287862377556 4.376085470946747 1 -1 -2
2378 643 4 0.44151 7.756305231100464 27.06982737441778 2.6798484064902315 0 1 0
1173 337 7 -0.69711 1.4043624307584204 28.940982247909375 1.2160264268434084 -1 -2 0
2625 705 7 -0.69711 5.260378828355201 19.4058240305136 3.7777834289630547 0 0 -1
482 138 7 -0.69711 -0.4899113784977497 25.72938747859326 3.6970941723425055 -1 1 -1
1175 337 6 0 1.000322135992198 26.53094101567994 0.2025972422980319 -1 -2 0
2157 588 7 -0.69711 6.491088343415171 28.524124169583526 9.273244835824526 1 -1 0
2714 727 4 0.44151 -0.9148162234874979 23.657048566199446 9.263097893106188 1 0 2
905 259 6 0 4.586927487681549 26.141174478939856 7.767438384419997 1 1 1
902 259 5 0.2556 2.9421077936212807 27.181750962715075 8.14958098619829 1 1 1