CHARMM-GUI lammps input

                 2723  atoms
                 1994  bonds
                 1265  angles
                 1608  dihedrals
                 0  impropers

                 7  atom types
                 5  bond types
                 3  angle types
                 3  dihedral types
                 0  improper types

-2.41801 41.35913 xlo xhi
-2.03272 40.76983 ylo yhi
-1.9059 40.34412 zlo zhi

Masses

       1         1.008  # HGP1
       2        15.011  # CG331
       3        15.999  # OG311
       4         1.008  # H
       5        14.011  # CT2
       6        15.011  # CT3
       7        15.999  # OH1

Pair Coeffs

       1 0.000000 0.40 # HGP1
       2 0.23963942 3.7543 # CG331
       3 0.1746324 3.03 # OG311
       4 0.0000 0.400 # H
       5 0.1714768 3.4612 # CT2
       6 0.2387611 3.6072 # CT3
       7 0.1690166 3.1496 # OH1

Atoms

1	1	2	0	1.42	0	0
2	1	3	0	0	0	0
3	1	1	0	-0.3267	-0.924	0
4	2	5	0	-0.00432	-0.01298	4.80569
5	2	7	0	-0.45708	1.33306	4.80615
6	2	4	0	-1.41801	1.3145	4.80768
7	2	6	0	1.51915	0.00165	4.80627
8	3	5	0	-0.00432	-0.01298	9.61028
9	3	7	0	-0.45708	1.33306	9.61074
10	3	4	0	-1.41801	1.3145	9.61227
11	3	6	0	1.51915	0.00165	9.61086
12	4	5	0	-0.00432	-0.01298	14.4149
13	4	7	0	-0.45708	1.33306	14.4153
14	4	4	0	-1.41801	1.3145	14.4169
15	4	6	0	1.51915	0.00165	14.4155
16	5	2	0	1.42	0	19.2184
17	5	3	0	0	0	19.2184
18	5	1	0	-0.3267	-0.924	19.2184
19	6	5	0	-0.00432	-0.01298	24.0241
20	6	7	0	-0.45708	1.33306	24.0245
21	6	4	0	-1.41801	1.3145	24.0261
22	6	6	0	1.51915	0.00165	24.0247
23	7	5	0	-0.00432	-0.01298	28.8287
24	7	7	0	-0.45708	1.33306	28.8291
25	7	4	0	-1.41801	1.3145	28.8307
26	7	6	0	1.51915	0.00165	28.8292
27	8	2	0	1.42	0	33.6322
28	8	3	0	0	0	33.6322
29	8	1	0	-0.3267	-0.924	33.6322
30	9	2	0	1.42	0	38.4368
31	9	3	0	0	0	38.4368
32	9	1	0	-0.3267	-0.924	38.4368
33	10	5	0	-0.00432	4.79162	0.00109
34	10	7	0	-0.45708	6.13766	0.00155
35	10	4	0	-1.41801	6.1191	0.00308
36	10	6	0	1.51915	4.80625	0.00167
37	11	2	0	1.42	4.8046	4.8046
38	11	3	0	0	4.8046	4.8046
39	11	1	0	-0.3267	3.8806	4.8046
40	12	5	0	-0.00432	4.79162	9.61028
41	12	7	0	-0.45708	6.13766	9.61074
42	12	4	0	-1.41801	6.1191	9.61227
43	12	6	0	1.51915	4.80625	9.61086
44	13	2	0	1.42	4.8046	14.4138
45	13	3	0	0	4.8046	14.4138
46	13	1	0	-0.3267	3.8806	14.4138
47	14	2	0	1.42	4.8046	19.2184
48	14	3	0	0	4.8046	19.2184
49	14	1	0	-0.3267	3.8806	19.2184
50	15	2	0	1.42	4.8046	24.023
51	15	3	0	0	4.8046	24.023
52	15	1	0	-0.3267	3.8806	24.023
53	16	2	0	1.42	4.8046	28.8276
54	16	3	0	0	4.8046	28.8276
55	16	1	0	-0.3267	3.8806	28.8276
56	17	5	0	-0.00432	4.79162	33.6333
57	17	7	0	-0.45708	6.13766	33.6337
58	17	4	0	-1.41801	6.1191	33.6352
59	17	6	0	1.51915	4.80625	33.6338
60	18	5	0	-0.00432	4.79162	38.4379
61	18	7	0	-0.45708	6.13766	38.4383
62	18	4	0	-1.41801	6.1191	38.4398
63	18	6	0	1.51915	4.80625	38.4384
64	19	5	0	-0.00432	9.59621	0.00109
65	19	7	0	-0.45708	10.9422	0.00155
66	19	4	0	-1.41801	10.9237	0.00308
67	19	6	0	1.51915	9.61084	0.00167
68	20	5	0	-0.00432	9.59621	4.80569
69	20	7	0	-0.45708	10.9422	4.80615
70	20	4	0	-1.41801	10.9237	4.80768
71	20	6	0	1.51915	9.61084	4.80627
72	21	2	0	1.42	9.60919	9.60919
73	21	3	0	0	9.60919	9.60919
74	21	1	0	-0.3267	8.68519	9.60919
75	22	5	0	-0.00432	9.59621	14.4149
76	22	7	0	-0.45708	10.9422	14.4153
77	22	4	0	-1.41801	10.9237	14.4169
78	22	6	0	1.51915	9.61084	14.4155
79	23	2	0	1.42	9.60919	19.2184
80	23	3	0	0	9.60919	19.2184
81	23	1	0	-0.3267	8.68519	19.2184
82	24	2	0	1.42	9.60919	24.023
83	24	3	0	0	9.60919	24.023
84	24	1	0	-0.3267	8.68519	24.023
85	25	5	0	-0.00432	9.59621	28.8287
86	25	7	0	-0.45708	10.9422	28.8291
87	25	4	0	-1.41801	10.9237	28.8307
88	25	6	0	1.51915	9.61084	28.8292
89	26	2	0	1.42	9.60919	33.6322
90	26	3	0	0	9.60919	33.6322
91	26	1	0	-0.3267	8.68519	33.6322
92	27	2	0	1.42	9.60919	38.4368
93	27	3	0	0	9.60919	38.4368
94	27	1	0	-0.3267	8.68519	38.4368
95	28	2	0	1.42	14.4138	0
96	28	3	0	0	14.4138	0
97	28	1	0	-0.3267	13.4898	0
98	29	2	0	1.42	14.4138	4.8046
99	29	3	0	0	14.4138	4.8046
100	29	1	0	-0.3267	13.4898	4.8046
101	30	5	0	-0.00432	14.4008	9.61028
102	30	7	0	-0.45708	15.7469	9.61074
103	30	4	0	-1.41801	15.7283	9.61227
104	30	6	0	1.51915	14.4154	9.61086
105	31	2	0	1.42	14.4138	14.4138
106	31	3	0	0	14.4138	14.4138
107	31	1	0	-0.3267	13.4898	14.4138
108	32	2	0	1.42	14.4138	19.2184
109	32	3	0	0	14.4138	19.2184
110	32	1	0	-0.3267	13.4898	19.2184
111	33	2	0	1.42	14.4138	24.023
112	33	3	0	0	14.4138	24.023
113	33	1	0	-0.3267	13.4898	24.023
114	34	5	0	-0.00432	14.4008	28.8287
115	34	7	0	-0.45708	15.7469	28.8291
116	34	4	0	-1.41801	15.7283	28.8307
117	34	6	0	1.51915	14.4154	28.8292
118	35	2	0	1.42	14.4138	33.6322
119	35	3	0	0	14.4138	33.6322
120	35	1	0	-0.3267	13.4898	33.6322
121	36	5	0	-0.00432	14.4008	38.4379
122	36	7	0	-0.45708	15.7469	38.4383
123	36	4	0	-1.41801	15.7283	38.4398
124	36	6	0	1.51915	14.4154	38.4384
125	37	5	0	-0.00432	19.2054	0.00109
126	37	7	0	-0.45708	20.5514	0.00155
127	37	4	0	-1.41801	20.5329	0.00308
128	37	6	0	1.51915	19.22	0.00167
129	38	2	0	1.42	19.2184	4.8046
130	38	3	0	0	19.2184	4.8046
131	38	1	0	-0.3267	18.2944	4.8046
132	39	2	0	1.42	19.2184	9.60919
133	39	3	0	0	19.2184	9.60919
134	39	1	0	-0.3267	18.2944	9.60919
135	40	2	0	1.42	19.2184	14.4138
136	40	3	0	0	19.2184	14.4138
137	40	1	0	-0.3267	18.2944	14.4138
138	41	5	0	-0.00432	19.2054	19.2195
139	41	7	0	-0.45708	20.5514	19.2199
140	41	4	0	-1.41801	20.5329	19.2215
141	41	6	0	1.51915	19.22	19.2201
142	42	5	0	-0.00432	19.2054	24.0241
143	42	7	0	-0.45708	20.5514	24.0245
144	42	4	0	-1.41801	20.5329	24.0261
145	42	6	0	1.51915	19.22	24.0247
146	43	5	0	-0.00432	19.2054	28.8287
147	43	7	0	-0.45708	20.5514	28.8291
148	43	4	0	-1.41801	20.5329	28.8307
149	43	6	0	1.51915	19.22	28.8292
150	44	5	0	-0.00432	19.2054	33.6333
151	44	7	0	-0.45708	20.5514	33.6337
152	44	4	0	-1.41801	20.5329	33.6352
153	44	6	0	1.51915	19.22	33.6338
154	45	5	0	-0.00432	19.2054	38.4379
155	45	7	0	-0.45708	20.5514	38.4383
156	45	4	0	-1.41801	20.5329	38.4398
157	45	6	0	1.51915	19.22	38.4384
158	46	2	0	1.42	24.023	0
159	46	3	0	0	24.023	0
160	46	1	0	-0.3267	23.099	0
161	47	5	0	-0.00432	24.01	4.80569
162	47	7	0	-0.45708	25.356	4.80615
163	47	4	0	-1.41801	25.3375	4.80768
164	47	6	0	1.51915	24.0246	4.80627
165	48	2	0	1.42	24.023	9.60919
166	48	3	0	0	24.023	9.60919
167	48	1	0	-0.3267	23.099	9.60919
168	49	5	0	-0.00432	24.01	14.4149
169	49	7	0	-0.45708	25.356	14.4153
170	49	4	0	-1.41801	25.3375	14.4169
171	49	6	0	1.51915	24.0246	14.4155
172	50	5	0	-0.00432	24.01	19.2195
173	50	7	0	-0.45708	25.356	19.2199
174	50	4	0	-1.41801	25.3375	19.2215
175	50	6	0	1.51915	24.0246	19.2201
176	51	5	0	-0.00432	24.01	24.0241
177	51	7	0	-0.45708	25.356	24.0245
178	51	4	0	-1.41801	25.3375	24.0261
179	51	6	0	1.51915	24.0246	24.0247
180	52	2	0	1.42	24.023	28.8276
181	52	3	0	0	24.023	28.8276
182	52	1	0	-0.3267	23.099	28.8276
183	53	2	0	1.42	24.023	33.6322
184	53	3	0	0	24.023	33.6322
185	53	1	0	-0.3267	23.099	33.6322
186	54	5	0	-0.00432	24.01	38.4379
187	54	7	0	-0.45708	25.356	38.4383
188	54	4	0	-1.41801	25.3375	38.4398
189	54	6	0	1.51915	24.0246	38.4384
190	55	5	0	-0.00432	28.8146	0.00109
191	55	7	0	-0.45708	30.1606	0.00155
192	55	4	0	-1.41801	30.1421	0.00308
193	55	6	0	1.51915	28.8292	0.00167
194	56	2	0	1.42	28.8276	4.8046
195	56	3	0	0	28.8276	4.8046
196	56	1	0	-0.3267	27.9036	4.8046
197	57	2	0	1.42	28.8276	9.60919
198	57	3	0	0	28.8276	9.60919
199	57	1	0	-0.3267	27.9036	9.60919
200	58	5	0	-0.00432	28.8146	14.4149
201	58	7	0	-0.45708	30.1606	14.4153
202	58	4	0	-1.41801	30.1421	14.4169
203	58	6	0	1.51915	28.8292	14.4155
204	59	5	0	-0.00432	28.8146	19.2195
205	59	7	0	-0.45708	30.1606	19.2199
206	59	4	0	-1.41801	30.1421	19.2215
207	59	6	0	1.51915	28.8292	19.2201
208	60	5	0	-0.00432	28.8146	24.0241
209	60	7	0	-0.45708	30.1606	24.0245
210	60	4	0	-1.41801	30.1421	24.0261
211	60	6	0	1.51915	28.8292	24.0247
212	61	2	0	1.42	28.8276	28.8276
213	61	3	0	0	28.8276	28.8276
214	61	1	0	-0.3267	27.9036	28.8276
215	62	2	0	1.42	28.8276	33.6322
216	62	3	0	0	28.8276	33.6322
217	62	1	0	-0.3267	27.9036	33.6322
218	63	5	0	-0.00432	28.8146	38.4379
219	63	7	0	-0.45708	30.1606	38.4383
220	63	4	0	-1.41801	30.1421	38.4398
221	63	6	0	1.51915	28.8292	38.4384
222	64	2	0	1.42	33.6322	0
223	64	3	0	0	33.6322	0
224	64	1	0	-0.3267	32.7082	0
225	65	2	0	1.42	33.6322	4.8046
226	65	3	0	0	33.6322	4.8046
227	65	1	0	-0.3267	32.7082	4.8046
228	66	2	0	1.42	33.6322	9.60919
229	66	3	0	0	33.6322	9.60919
230	66	1	0	-0.3267	32.7082	9.60919
231	67	2	0	1.42	33.6322	14.4138
232	67	3	0	0	33.6322	14.4138
233	67	1	0	-0.3267	32.7082	14.4138
234	68	2	0	1.42	33.6322	19.2184
235	68	3	0	0	33.6322	19.2184
236	68	1	0	-0.3267	32.7082	19.2184
237	69	2	0	1.42	33.6322	24.023
238	69	3	0	0	33.6322	24.023
239	69	1	0	-0.3267	32.7082	24.023
240	70	2	0	1.42	33.6322	28.8276
241	70	3	0	0	33.6322	28.8276
242	70	1	0	-0.3267	32.7082	28.8276
243	71	2	0	1.42	33.6322	33.6322
244	71	3	0	0	33.6322	33.6322
245	71	1	0	-0.3267	32.7082	33.6322
246	72	5	0	-0.00432	33.6192	38.4379
247	72	7	0	-0.45708	34.9652	38.4383
248	72	4	0	-1.41801	34.9467	38.4398
249	72	6	0	1.51915	33.6338	38.4384
250	73	5	0	-0.00432	38.4238	0.00109
251	73	7	0	-0.45708	39.7698	0.00155
252	73	4	0	-1.41801	39.7513	0.00308
253	73	6	0	1.51915	38.4384	0.00167
254	74	5	0	-0.00432	38.4238	4.80569
255	74	7	0	-0.45708	39.7698	4.80615
256	74	4	0	-1.41801	39.7513	4.80768
257	74	6	0	1.51915	38.4384	4.80627
258	75	2	0	1.42	38.4368	9.60919
259	75	3	0	0	38.4368	9.60919
260	75	1	0	-0.3267	37.5128	9.60919
261	76	2	0	1.42	38.4368	14.4138
262	76	3	0	0	38.4368	14.4138
263	76	1	0	-0.3267	37.5128	14.4138
264	77	2	0	1.42	38.4368	19.2184
265	77	3	0	0	38.4368	19.2184
266	77	1	0	-0.3267	37.5128	19.2184
267	78	2	0	1.42	38.4368	24.023
268	78	3	0	0	38.4368	24.023
269	78	1	0	-0.3267	37.5128	24.023
270	79	5	0	-0.00432	38.4238	28.8287
271	79	7	0	-0.45708	39.7698	28.8291
272	79	4	0	-1.41801	39.7513	28.8307
273	79	6	0	1.51915	38.4384	28.8292
274	80	5	0	-0.00432	38.4238	33.6333
275	80	7	0	-0.45708	39.7698	33.6337
276	80	4	0	-1.41801	39.7513	33.6352
277	80	6	0	1.51915	38.4384	33.6338
278	81	5	0	-0.00432	38.4238	38.4379
279	81	7	0	-0.45708	39.7698	38.4383
280	81	4	0	-1.41801	39.7513	38.4398
281	81	6	0	1.51915	38.4384	38.4384
282	82	5	0	4.80028	-0.01298	0.00109
283	82	7	0	4.34752	1.33306	0.00155
284	82	4	0	3.38659	1.3145	0.00308
285	82	6	0	6.32375	0.00165	0.00167
286	83	5	0	4.80028	-0.01298	4.80569
287	83	7	0	4.34752	1.33306	4.80615
288	83	4	0	3.38659	1.3145	4.80768
289	83	6	0	6.32375	0.00165	4.80627
290	84	5	0	4.80028	-0.01298	9.61028
291	84	7	0	4.34752	1.33306	9.61074
292	84	4	0	3.38659	1.3145	9.61227
293	84	6	0	6.32375	0.00165	9.61086
294	85	5	0	4.80028	-0.01298	14.4149
295	85	7	0	4.34752	1.33306	14.4153
296	85	4	0	3.38659	1.3145	14.4169
297	85	6	0	6.32375	0.00165	14.4155
298	86	2	0	6.2246	0	19.2184
299	86	3	0	4.8046	0	19.2184
300	86	1	0	4.4779	-0.924	19.2184
301	87	5	0	4.80028	-0.01298	24.0241
302	87	7	0	4.34752	1.33306	24.0245
303	87	4	0	3.38659	1.3145	24.0261
304	87	6	0	6.32375	0.00165	24.0247
305	88	5	0	4.80028	-0.01298	28.8287
306	88	7	0	4.34752	1.33306	28.8291
307	88	4	0	3.38659	1.3145	28.8307
308	88	6	0	6.32375	0.00165	28.8292
309	89	5	0	4.80028	-0.01298	33.6333
310	89	7	0	4.34752	1.33306	33.6337
311	89	4	0	3.38659	1.3145	33.6352
312	89	6	0	6.32375	0.00165	33.6338
313	90	2	0	6.2246	0	38.4368
314	90	3	0	4.8046	0	38.4368
315	90	1	0	4.4779	-0.924	38.4368
316	91	2	0	6.2246	4.8046	0
317	91	3	0	4.8046	4.8046	0
318	91	1	0	4.4779	3.8806	0
319	92	2	0	6.2246	4.8046	4.8046
320	92	3	0	4.8046	4.8046	4.8046
321	92	1	0	4.4779	3.8806	4.8046
322	93	5	0	4.80028	4.79162	9.61028
323	93	7	0	4.34752	6.13766	9.61074
324	93	4	0	3.38659	6.1191	9.61227
325	93	6	0	6.32375	4.80625	9.61086
326	94	5	0	4.80028	4.79162	14.4149
327	94	7	0	4.34752	6.13766	14.4153
328	94	4	0	3.38659	6.1191	14.4169
329	94	6	0	6.32375	4.80625	14.4155
330	95	5	0	4.80028	4.79162	19.2195
331	95	7	0	4.34752	6.13766	19.2199
332	95	4	0	3.38659	6.1191	19.2215
333	95	6	0	6.32375	4.80625	19.2201
334	96	2	0	6.2246	4.8046	24.023
335	96	3	0	4.8046	4.8046	24.023
336	96	1	0	4.4779	3.8806	24.023
337	97	2	0	6.2246	4.8046	28.8276
338	97	3	0	4.8046	4.8046	28.8276
339	97	1	0	4.4779	3.8806	28.8276
340	98	2	0	6.2246	4.8046	33.6322
341	98	3	0	4.8046	4.8046	33.6322
342	98	1	0	4.4779	3.8806	33.6322
343	99	2	0	6.2246	4.8046	38.4368
344	99	3	0	4.8046	4.8046	38.4368
345	99	1	0	4.4779	3.8806	38.4368
346	100	2	0	6.2246	9.60919	0
347	100	3	0	4.8046	9.60919	0
348	100	1	0	4.4779	8.68519	0
349	101	5	0	4.80028	9.59621	4.80569
350	101	7	0	4.34752	10.9422	4.80615
351	101	4	0	3.38659	10.9237	4.80768
352	101	6	0	6.32375	9.61084	4.80627
353	102	5	0	4.80028	9.59621	9.61028
354	102	7	0	4.34752	10.9422	9.61074
355	102	4	0	3.38659	10.9237	9.61227
356	102	6	0	6.32375	9.61084	9.61086
357	103	2	0	6.2246	9.60919	14.4138
358	103	3	0	4.8046	9.60919	14.4138
359	103	1	0	4.4779	8.68519	14.4138
360	104	5	0	4.80028	9.59621	19.2195
361	104	7	0	4.34752	10.9422	19.2199
362	104	4	0	3.38659	10.9237	19.2215
363	104	6	0	6.32375	9.61084	19.2201
364	105	2	0	6.2246	9.60919	24.023
365	105	3	0	4.8046	9.60919	24.023
366	105	1	0	4.4779	8.68519	24.023
367	106	2	0	6.2246	9.60919	28.8276
368	106	3	0	4.8046	9.60919	28.8276
369	106	1	0	4.4779	8.68519	28.8276
370	107	2	0	6.2246	9.60919	33.6322
371	107	3	0	4.8046	9.60919	33.6322
372	107	1	0	4.4779	8.68519	33.6322
373	108	2	0	6.2246	9.60919	38.4368
374	108	3	0	4.8046	9.60919	38.4368
375	108	1	0	4.4779	8.68519	38.4368
376	109	5	0	4.80028	14.4008	0.00109
377	109	7	0	4.34752	15.7469	0.00155
378	109	4	0	3.38659	15.7283	0.00308
379	109	6	0	6.32375	14.4154	0.00167
380	110	2	0	6.2246	14.4138	4.8046
381	110	3	0	4.8046	14.4138	4.8046
382	110	1	0	4.4779	13.4898	4.8046
383	111	5	0	4.80028	14.4008	9.61028
384	111	7	0	4.34752	15.7469	9.61074
385	111	4	0	3.38659	15.7283	9.61227
386	111	6	0	6.32375	14.4154	9.61086
387	112	2	0	6.2246	14.4138	14.4138
388	112	3	0	4.8046	14.4138	14.4138
389	112	1	0	4.4779	13.4898	14.4138
390	113	2	0	6.2246	14.4138	19.2184
391	113	3	0	4.8046	14.4138	19.2184
392	113	1	0	4.4779	13.4898	19.2184
393	114	2	0	6.2246	14.4138	24.023
394	114	3	0	4.8046	14.4138	24.023
395	114	1	0	4.4779	13.4898	24.023
396	115	5	0	4.80028	14.4008	28.8287
397	115	7	0	4.34752	15.7469	28.8291
398	115	4	0	3.38659	15.7283	28.8307
399	115	6	0	6.32375	14.4154	28.8292
400	116	2	0	6.2246	14.4138	33.6322
401	116	3	0	4.8046	14.4138	33.6322
402	116	1	0	4.4779	13.4898	33.6322
403	117	2	0	6.2246	14.4138	38.4368
404	117	3	0	4.8046	14.4138	38.4368
405	117	1	0	4.4779	13.4898	38.4368
406	118	5	0	4.80028	19.2054	0.00109
407	118	7	0	4.34752	20.5514	0.00155
408	118	4	0	3.38659	20.5329	0.00308
409	118	6	0	6.32375	19.22	0.00167
410	119	5	0	4.80028	19.2054	4.80569
411	119	7	0	4.34752	20.5514	4.80615
412	119	4	0	3.38659	20.5329	4.80768
413	119	6	0	6.32375	19.22	4.80627
414	120	5	0	4.80028	19.2054	9.61028
415	120	7	0	4.34752	20.5514	9.61074
416	120	4	0	3.38659	20.5329	9.61227
417	120	6	0	6.32375	19.22	9.61086
418	121	5	0	4.80028	19.2054	14.4149
419	121	7	0	4.34752	20.5514	14.4153
420	121	4	0	3.38659	20.5329	14.4169
421	121	6	0	6.32375	19.22	14.4155
422	122	5	0	4.80028	19.2054	19.2195
423	122	7	0	4.34752	20.5514	19.2199
424	122	4	0	3.38659	20.5329	19.2215
425	122	6	0	6.32375	19.22	19.2201
426	123	2	0	6.2246	19.2184	24.023
427	123	3	0	4.8046	19.2184	24.023
428	123	1	0	4.4779	18.2944	24.023
429	124	5	0	4.80028	19.2054	28.8287
430	124	7	0	4.34752	20.5514	28.8291
431	124	4	0	3.38659	20.5329	28.8307
432	124	6	0	6.32375	19.22	28.8292
433	125	5	0	4.80028	19.2054	33.6333
434	125	7	0	4.34752	20.5514	33.6337
435	125	4	0	3.38659	20.5329	33.6352
436	125	6	0	6.32375	19.22	33.6338
437	126	5	0	4.80028	19.2054	38.4379
438	126	7	0	4.34752	20.5514	38.4383
439	126	4	0	3.38659	20.5329	38.4398
440	126	6	0	6.32375	19.22	38.4384
441	127	5	0	4.80028	24.01	0.00109
442	127	7	0	4.34752	25.356	0.00155
443	127	4	0	3.38659	25.3375	0.00308
444	127	6	0	6.32375	24.0246	0.00167
445	128	5	0	4.80028	24.01	4.80569
446	128	7	0	4.34752	25.356	4.80615
447	128	4	0	3.38659	25.3375	4.80768
448	128	6	0	6.32375	24.0246	4.80627
449	129	5	0	4.80028	24.01	9.61028
450	129	7	0	4.34752	25.356	9.61074
451	129	4	0	3.38659	25.3375	9.61227
452	129	6	0	6.32375	24.0246	9.61086
453	130	2	0	6.2246	24.023	14.4138
454	130	3	0	4.8046	24.023	14.4138
455	130	1	0	4.4779	23.099	14.4138
456	131	2	0	6.2246	24.023	19.2184
457	131	3	0	4.8046	24.023	19.2184
458	131	1	0	4.4779	23.099	19.2184
459	132	5	0	4.80028	24.01	24.0241
460	132	7	0	4.34752	25.356	24.0245
461	132	4	0	3.38659	25.3375	24.0261
462	132	6	0	6.32375	24.0246	24.0247
463	133	5	0	4.80028	24.01	28.8287
464	133	7	0	4.34752	25.356	28.8291
465	133	4	0	3.38659	25.3375	28.8307
466	133	6	0	6.32375	24.0246	28.8292
467	134	5	0	4.80028	24.01	33.6333
468	134	7	0	4.34752	25.356	33.6337
469	134	4	0	3.38659	25.3375	33.6352
470	134	6	0	6.32375	24.0246	33.6338
471	135	5	0	4.80028	24.01	38.4379
472	135	7	0	4.34752	25.356	38.4383
473	135	4	0	3.38659	25.3375	38.4398
474	135	6	0	6.32375	24.0246	38.4384
475	136	2	0	6.2246	28.8276	0
476	136	3	0	4.8046	28.8276	0
477	136	1	0	4.4779	27.9036	0
478	137	2	0	6.2246	28.8276	4.8046
479	137	3	0	4.8046	28.8276	4.8046
480	137	1	0	4.4779	27.9036	4.8046
481	138	5	0	4.80028	28.8146	9.61028
482	138	7	0	4.34752	30.1606	9.61074
483	138	4	0	3.38659	30.1421	9.61227
484	138	6	0	6.32375	28.8292	9.61086
485	139	5	0	4.80028	28.8146	14.4149
486	139	7	0	4.34752	30.1606	14.4153
487	139	4	0	3.38659	30.1421	14.4169
488	139	6	0	6.32375	28.8292	14.4155
489	140	2	0	6.2246	28.8276	19.2184
490	140	3	0	4.8046	28.8276	19.2184
491	140	1	0	4.4779	27.9036	19.2184
492	141	2	0	6.2246	28.8276	24.023
493	141	3	0	4.8046	28.8276	24.023
494	141	1	0	4.4779	27.9036	24.023
495	142	2	0	6.2246	28.8276	28.8276
496	142	3	0	4.8046	28.8276	28.8276
497	142	1	0	4.4779	27.9036	28.8276
498	143	5	0	4.80028	28.8146	33.6333
499	143	7	0	4.34752	30.1606	33.6337
500	143	4	0	3.38659	30.1421	33.6352
501	143	6	0	6.32375	28.8292	33.6338
502	144	5	0	4.80028	28.8146	38.4379
503	144	7	0	4.34752	30.1606	38.4383
504	144	4	0	3.38659	30.1421	38.4398
505	144	6	0	6.32375	28.8292	38.4384
506	145	2	0	6.2246	33.6322	0
507	145	3	0	4.8046	33.6322	0
508	145	1	0	4.4779	32.7082	0
509	146	5	0	4.80028	33.6192	4.80569
510	146	7	0	4.34752	34.9652	4.80615
511	146	4	0	3.38659	34.9467	4.80768
512	146	6	0	6.32375	33.6338	4.80627
513	147	2	0	6.2246	33.6322	9.60919
514	147	3	0	4.8046	33.6322	9.60919
515	147	1	0	4.4779	32.7082	9.60919
516	148	2	0	6.2246	33.6322	14.4138
517	148	3	0	4.8046	33.6322	14.4138
518	148	1	0	4.4779	32.7082	14.4138
519	149	2	0	6.2246	33.6322	19.2184
520	149	3	0	4.8046	33.6322	19.2184
521	149	1	0	4.4779	32.7082	19.2184
522	150	2	0	6.2246	33.6322	24.023
523	150	3	0	4.8046	33.6322	24.023
524	150	1	0	4.4779	32.7082	24.023
525	151	2	0	6.2246	33.6322	28.8276
526	151	3	0	4.8046	33.6322	28.8276
527	151	1	0	4.4779	32.7082	28.8276
528	152	2	0	6.2246	33.6322	33.6322
529	152	3	0	4.8046	33.6322	33.6322
530	152	1	0	4.4779	32.7082	33.6322
531	153	2	0	6.2246	33.6322	38.4368
532	153	3	0	4.8046	33.6322	38.4368
533	153	1	0	4.4779	32.7082	38.4368
534	154	5	0	4.80028	38.4238	0.00109
535	154	7	0	4.34752	39.7698	0.00155
536	154	4	0	3.38659	39.7513	0.00308
537	154	6	0	6.32375	38.4384	0.00167
538	155	5	0	4.80028	38.4238	4.80569
539	155	7	0	4.34752	39.7698	4.80615
540	155	4	0	3.38659	39.7513	4.80768
541	155	6	0	6.32375	38.4384	4.80627
542	156	2	0	6.2246	38.4368	9.60919
543	156	3	0	4.8046	38.4368	9.60919
544	156	1	0	4.4779	37.5128	9.60919
545	157	2	0	6.2246	38.4368	14.4138
546	157	3	0	4.8046	38.4368	14.4138
547	157	1	0	4.4779	37.5128	14.4138
548	158	5	0	4.80028	38.4238	19.2195
549	158	7	0	4.34752	39.7698	19.2199
550	158	4	0	3.38659	39.7513	19.2215
551	158	6	0	6.32375	38.4384	19.2201
552	159	2	0	6.2246	38.4368	24.023
553	159	3	0	4.8046	38.4368	24.023
554	159	1	0	4.4779	37.5128	24.023
555	160	2	0	6.2246	38.4368	28.8276
556	160	3	0	4.8046	38.4368	28.8276
557	160	1	0	4.4779	37.5128	28.8276
558	161	2	0	6.2246	38.4368	33.6322
559	161	3	0	4.8046	38.4368	33.6322
560	161	1	0	4.4779	37.5128	33.6322
561	162	5	0	4.80028	38.4238	38.4379
562	162	7	0	4.34752	39.7698	38.4383
563	162	4	0	3.38659	39.7513	38.4398
564	162	6	0	6.32375	38.4384	38.4384
565	163	2	0	11.0292	0	0
566	163	3	0	9.60919	0	0
567	163	1	0	9.28249	-0.924	0
568	164	2	0	11.0292	0	4.8046
569	164	3	0	9.60919	0	4.8046
570	164	1	0	9.28249	-0.924	4.8046
571	165	5	0	9.60487	-0.01298	9.61028
572	165	7	0	9.15211	1.33306	9.61074
573	165	4	0	8.19118	1.3145	9.61227
574	165	6	0	11.1283	0.00165	9.61086
575	166	2	0	11.0292	0	14.4138
576	166	3	0	9.60919	0	14.4138
577	166	1	0	9.28249	-0.924	14.4138
578	167	2	0	11.0292	0	19.2184
579	167	3	0	9.60919	0	19.2184
580	167	1	0	9.28249	-0.924	19.2184
581	168	5	0	9.60487	-0.01298	24.0241
582	168	7	0	9.15211	1.33306	24.0245
583	168	4	0	8.19118	1.3145	24.0261
584	168	6	0	11.1283	0.00165	24.0247
585	169	5	0	9.60487	-0.01298	28.8287
586	169	7	0	9.15211	1.33306	28.8291
587	169	4	0	8.19118	1.3145	28.8307
588	169	6	0	11.1283	0.00165	28.8292
589	170	2	0	11.0292	0	33.6322
590	170	3	0	9.60919	0	33.6322
591	170	1	0	9.28249	-0.924	33.6322
592	171	2	0	11.0292	0	38.4368
593	171	3	0	9.60919	0	38.4368
594	171	1	0	9.28249	-0.924	38.4368
595	172	2	0	11.0292	4.8046	0
596	172	3	0	9.60919	4.8046	0
597	172	1	0	9.28249	3.8806	0
598	173	2	0	11.0292	4.8046	4.8046
599	173	3	0	9.60919	4.8046	4.8046
600	173	1	0	9.28249	3.8806	4.8046
601	174	5	0	9.60487	4.79162	9.61028
602	174	7	0	9.15211	6.13766	9.61074
603	174	4	0	8.19118	6.1191	9.61227
604	174	6	0	11.1283	4.80625	9.61086
605	175	5	0	9.60487	4.79162	14.4149
606	175	7	0	9.15211	6.13766	14.4153
607	175	4	0	8.19118	6.1191	14.4169
608	175	6	0	11.1283	4.80625	14.4155
609	176	5	0	9.60487	4.79162	19.2195
610	176	7	0	9.15211	6.13766	19.2199
611	176	4	0	8.19118	6.1191	19.2215
612	176	6	0	11.1283	4.80625	19.2201
613	177	2	0	11.0292	4.8046	24.023
614	177	3	0	9.60919	4.8046	24.023
615	177	1	0	9.28249	3.8806	24.023
616	178	2	0	11.0292	4.8046	28.8276
617	178	3	0	9.60919	4.8046	28.8276
618	178	1	0	9.28249	3.8806	28.8276
619	179	2	0	11.0292	4.8046	33.6322
620	179	3	0	9.60919	4.8046	33.6322
621	179	1	0	9.28249	3.8806	33.6322
622	180	2	0	11.0292	4.8046	38.4368
623	180	3	0	9.60919	4.8046	38.4368
624	180	1	0	9.28249	3.8806	38.4368
625	181	2	0	11.0292	9.60919	0
626	181	3	0	9.60919	9.60919	0
627	181	1	0	9.28249	8.68519	0
628	182	2	0	11.0292	9.60919	4.8046
629	182	3	0	9.60919	9.60919	4.8046
630	182	1	0	9.28249	8.68519	4.8046
631	183	2	0	11.0292	9.60919	9.60919
632	183	3	0	9.60919	9.60919	9.60919
633	183	1	0	9.28249	8.68519	9.60919
634	184	5	0	9.60487	9.59621	14.4149
635	184	7	0	9.15211	10.9422	14.4153
636	184	4	0	8.19118	10.9237	14.4169
637	184	6	0	11.1283	9.61084	14.4155
638	185	2	0	11.0292	9.60919	19.2184
639	185	3	0	9.60919	9.60919	19.2184
640	185	1	0	9.28249	8.68519	19.2184
641	186	5	0	9.60487	9.59621	24.0241
642	186	7	0	9.15211	10.9422	24.0245
643	186	4	0	8.19118	10.9237	24.0261
644	186	6	0	11.1283	9.61084	24.0247
645	187	5	0	9.60487	9.59621	28.8287
646	187	7	0	9.15211	10.9422	28.8291
647	187	4	0	8.19118	10.9237	28.8307
648	187	6	0	11.1283	9.61084	28.8292
649	188	5	0	9.60487	9.59621	33.6333
650	188	7	0	9.15211	10.9422	33.6337
651	188	4	0	8.19118	10.9237	33.6352
652	188	6	0	11.1283	9.61084	33.6338
653	189	2	0	11.0292	9.60919	38.4368
654	189	3	0	9.60919	9.60919	38.4368
655	189	1	0	9.28249	8.68519	38.4368
656	190	5	0	9.60487	14.4008	0.00109
657	190	7	0	9.15211	15.7469	0.00155
658	190	4	0	8.19118	15.7283	0.00308
659	190	6	0	11.1283	14.4154	0.00167
660	191	5	0	9.60487	14.4008	4.80569
661	191	7	0	9.15211	15.7469	4.80615
662	191	4	0	8.19118	15.7283	4.80768
663	191	6	0	11.1283	14.4154	4.80627
664	192	2	0	11.0292	14.4138	9.60919
665	192	3	0	9.60919	14.4138	9.60919
666	192	1	0	9.28249	13.4898	9.60919
667	193	2	0	11.0292	14.4138	14.4138
668	193	3	0	9.60919	14.4138	14.4138
669	193	1	0	9.28249	13.4898	14.4138
670	194	5	0	9.60487	14.4008	19.2195
671	194	7	0	9.15211	15.7469	19.2199
672	194	4	0	8.19118	15.7283	19.2215
673	194	6	0	11.1283	14.4154	19.2201
674	195	2	0	11.0292	14.4138	24.023
675	195	3	0	9.60919	14.4138	24.023
676	195	1	0	9.28249	13.4898	24.023
677	196	5	0	9.60487	14.4008	28.8287
678	196	7	0	9.15211	15.7469	28.8291
679	196	4	0	8.19118	15.7283	28.8307
680	196	6	0	11.1283	14.4154	28.8292
681	197	5	0	9.60487	14.4008	33.6333
682	197	7	0	9.15211	15.7469	33.6337
683	197	4	0	8.19118	15.7283	33.6352
684	197	6	0	11.1283	14.4154	33.6338
685	198	5	0	9.60487	14.4008	38.4379
686	198	7	0	9.15211	15.7469	38.4383
687	198	4	0	8.19118	15.7283	38.4398
688	198	6	0	11.1283	14.4154	38.4384
689	199	2	0	11.0292	19.2184	0
690	199	3	0	9.60919	19.2184	0
691	199	1	0	9.28249	18.2944	0
692	200	5	0	9.60487	19.2054	4.80569
693	200	7	0	9.15211	20.5514	4.80615
694	200	4	0	8.19118	20.5329	4.80768
695	200	6	0	11.1283	19.22	4.80627
696	201	5	0	9.60487	19.2054	9.61028
697	201	7	0	9.15211	20.5514	9.61074
698	201	4	0	8.19118	20.5329	9.61227
699	201	6	0	11.1283	19.22	9.61086
700	202	5	0	9.60487	19.2054	14.4149
701	202	7	0	9.15211	20.5514	14.4153
702	202	4	0	8.19118	20.5329	14.4169
703	202	6	0	11.1283	19.22	14.4155
704	203	5	0	9.60487	19.2054	19.2195
705	203	7	0	9.15211	20.5514	19.2199
706	203	4	0	8.19118	20.5329	19.2215
707	203	6	0	11.1283	19.22	19.2201
708	204	2	0	11.0292	19.2184	24.023
709	204	3	0	9.60919	19.2184	24.023
710	204	1	0	9.28249	18.2944	24.023
711	205	2	0	11.0292	19.2184	28.8276
712	205	3	0	9.60919	19.2184	28.8276
713	205	1	0	9.28249	18.2944	28.8276
714	206	2	0	11.0292	19.2184	33.6322
715	206	3	0	9.60919	19.2184	33.6322
716	206	1	0	9.28249	18.2944	33.6322
717	207	5	0	9.60487	19.2054	38.4379
718	207	7	0	9.15211	20.5514	38.4383
719	207	4	0	8.19118	20.5329	38.4398
720	207	6	0	11.1283	19.22	38.4384
721	208	5	0	9.60487	24.01	0.00109
722	208	7	0	9.15211	25.356	0.00155
723	208	4	0	8.19118	25.3375	0.00308
724	208	6	0	11.1283	24.0246	0.00167
725	209	2	0	11.0292	24.023	4.8046
726	209	3	0	9.60919	24.023	4.8046
727	209	1	0	9.28249	23.099	4.8046
728	210	2	0	11.0292	24.023	9.60919
729	210	3	0	9.60919	24.023	9.60919
730	210	1	0	9.28249	23.099	9.60919
731	211	2	0	11.0292	24.023	14.4138
732	211	3	0	9.60919	24.023	14.4138
733	211	1	0	9.28249	23.099	14.4138
734	212	5	0	9.60487	24.01	19.2195
735	212	7	0	9.15211	25.356	19.2199
736	212	4	0	8.19118	25.3375	19.2215
737	212	6	0	11.1283	24.0246	19.2201
738	213	5	0	9.60487	24.01	24.0241
739	213	7	0	9.15211	25.356	24.0245
740	213	4	0	8.19118	25.3375	24.0261
741	213	6	0	11.1283	24.0246	24.0247
742	214	5	0	9.60487	24.01	28.8287
743	214	7	0	9.15211	25.356	28.8291
744	214	4	0	8.19118	25.3375	28.8307
745	214	6	0	11.1283	24.0246	28.8292
746	215	5	0	9.60487	24.01	33.6333
747	215	7	0	9.15211	25.356	33.6337
748	215	4	0	8.19118	25.3375	33.6352
749	215	6	0	11.1283	24.0246	33.6338
750	216	2	0	11.0292	24.023	38.4368
751	216	3	0	9.60919	24.023	38.4368
752	216	1	0	9.28249	23.099	38.4368
753	217	2	0	11.0292	28.8276	0
754	217	3	0	9.60919	28.8276	0
755	217	1	0	9.28249	27.9036	0
756	218	2	0	11.0292	28.8276	4.8046
757	218	3	0	9.60919	28.8276	4.8046
758	218	1	0	9.28249	27.9036	4.8046
759	219	5	0	9.60487	28.8146	9.61028
760	219	7	0	9.15211	30.1606	9.61074
761	219	4	0	8.19118	30.1421	9.61227
762	219	6	0	11.1283	28.8292	9.61086
763	220	2	0	11.0292	28.8276	14.4138
764	220	3	0	9.60919	28.8276	14.4138
765	220	1	0	9.28249	27.9036	14.4138
766	221	5	0	9.60487	28.8146	19.2195
767	221	7	0	9.15211	30.1606	19.2199
768	221	4	0	8.19118	30.1421	19.2215
769	221	6	0	11.1283	28.8292	19.2201
770	222	2	0	11.0292	28.8276	24.023
771	222	3	0	9.60919	28.8276	24.023
772	222	1	0	9.28249	27.9036	24.023
773	223	2	0	11.0292	28.8276	28.8276
774	223	3	0	9.60919	28.8276	28.8276
775	223	1	0	9.28249	27.9036	28.8276
776	224	5	0	9.60487	28.8146	33.6333
777	224	7	0	9.15211	30.1606	33.6337
778	224	4	0	8.19118	30.1421	33.6352
779	224	6	0	11.1283	28.8292	33.6338
780	225	5	0	9.60487	28.8146	38.4379
781	225	7	0	9.15211	30.1606	38.4383
782	225	4	0	8.19118	30.1421	38.4398
783	225	6	0	11.1283	28.8292	38.4384
784	226	2	0	11.0292	33.6322	0
785	226	3	0	9.60919	33.6322	0
786	226	1	0	9.28249	32.7082	0
787	227	5	0	9.60487	33.6192	4.80569
788	227	7	0	9.15211	34.9652	4.80615
789	227	4	0	8.19118	34.9467	4.80768
790	227	6	0	11.1283	33.6338	4.80627
791	228	2	0	11.0292	33.6322	9.60919
792	228	3	0	9.60919	33.6322	9.60919
793	228	1	0	9.28249	32.7082	9.60919
794	229	5	0	9.60487	33.6192	14.4149
795	229	7	0	9.15211	34.9652	14.4153
796	229	4	0	8.19118	34.9467	14.4169
797	229	6	0	11.1283	33.6338	14.4155
798	230	5	0	9.60487	33.6192	19.2195
799	230	7	0	9.15211	34.9652	19.2199
800	230	4	0	8.19118	34.9467	19.2215
801	230	6	0	11.1283	33.6338	19.2201
802	231	2	0	11.0292	33.6322	24.023
803	231	3	0	9.60919	33.6322	24.023
804	231	1	0	9.28249	32.7082	24.023
805	232	5	0	9.60487	33.6192	28.8287
806	232	7	0	9.15211	34.9652	28.8291
807	232	4	0	8.19118	34.9467	28.8307
808	232	6	0	11.1283	33.6338	28.8292
809	233	5	0	9.60487	33.6192	33.6333
810	233	7	0	9.15211	34.9652	33.6337
811	233	4	0	8.19118	34.9467	33.6352
812	233	6	0	11.1283	33.6338	33.6338
813	234	2	0	11.0292	33.6322	38.4368
814	234	3	0	9.60919	33.6322	38.4368
815	234	1	0	9.28249	32.7082	38.4368
816	235	5	0	9.60487	38.4238	0.00109
817	235	7	0	9.15211	39.7698	0.00155
818	235	4	0	8.19118	39.7513	0.00308
819	235	6	0	11.1283	38.4384	0.00167
820	236	5	0	9.60487	38.4238	4.80569
821	236	7	0	9.15211	39.7698	4.80615
822	236	4	0	8.19118	39.7513	4.80768
823	236	6	0	11.1283	38.4384	4.80627
824	237	2	0	11.0292	38.4368	9.60919
825	237	3	0	9.60919	38.4368	9.60919
826	237	1	0	9.28249	37.5128	9.60919
827	238	5	0	9.60487	38.4238	14.4149
828	238	7	0	9.15211	39.7698	14.4153
829	238	4	0	8.19118	39.7513	14.4169
830	238	6	0	11.1283	38.4384	14.4155
831	239	2	0	11.0292	38.4368	19.2184
832	239	3	0	9.60919	38.4368	19.2184
833	239	1	0	9.28249	37.5128	19.2184
834	240	2	0	11.0292	38.4368	24.023
835	240	3	0	9.60919	38.4368	24.023
836	240	1	0	9.28249	37.5128	24.023
837	241	2	0	11.0292	38.4368	28.8276
838	241	3	0	9.60919	38.4368	28.8276
839	241	1	0	9.28249	37.5128	28.8276
840	242	5	0	9.60487	38.4238	33.6333
841	242	7	0	9.15211	39.7698	33.6337
842	242	4	0	8.19118	39.7513	33.6352
843	242	6	0	11.1283	38.4384	33.6338
844	243	2	0	11.0292	38.4368	38.4368
845	243	3	0	9.60919	38.4368	38.4368
846	243	1	0	9.28249	37.5128	38.4368
847	244	5	0	14.4095	-0.01298	0.00109
848	244	7	0	13.9567	1.33306	0.00155
849	244	4	0	12.9958	1.3145	0.00308
850	244	6	0	15.9329	0.00165	0.00167
851	245	5	0	14.4095	-0.01298	4.80569
852	245	7	0	13.9567	1.33306	4.80615