LAMMPS data file via write_data, version 29 Aug 2024, timestep = 1000000, units = real

2815 atoms
7 atom types
2086 bonds
5 bond types
1357 angles
3 angle types
1884 dihedrals
3 dihedral types

-1.3796868962707016 40.32080689625977 xlo xhi
-1.0175125980629183 39.754622598032746 ylo yhi
-0.903797717870777 39.34201771786368 zlo zhi

Masses

1 1.008
2 15.011
3 15.999
4 1.008
5 14.011
6 15.011
7 15.999

Pair Coeffs # lj/cut/coul/long

1 0 0.4
2 0.239639 3.7543
3 0.174632 3.03
4 0 0.4
5 0.171477 3.4612
6 0.238761 3.6072
7 0.169017 3.1496

Bond Coeffs # harmonic

1 1000 1.4246
2 1000 0.9451
3 1000 1.9842
4 1000 1.71581
5 1000 0.95053

Angle Coeffs # harmonic

1 1000 108.53
2 1000 106.368
3 1000 90.95

Dihedral Coeffs # quadratic

1 1000 180 
2 1000 180 
3 1000 180 

Atoms # full

529 151 3 -0.67874 2.3995601910204885 -0.8357986465255732 -0.19774645468476526 0 -1 0
1719 455 6 0 7.923015768606257 -0.3517660246252857 2.4032909497951946 1 1 0
936 260 5 0.2556 6.458965088662869 7.562197491222548 11.115478921260157 1 -1 0
938 260 4 0.44151 4.72172466448688 6.600694797213581 10.190082873137726 1 -1 0
1126 307 4 0.44151 -0.8854716791115459 7.8436676203152444 5.299076174412521 0 1 -1
39 12 2 0.24746 6.312510437619109 6.480845630078449 6.03952538228803 -1 0 0
101 30 2 0.24746 6.994666492274391 -0.051525207337946966 6.490364617738811 0 1 0
1180 321 5 0.2556 0.22634191857188135 6.0973263386138985 1.7809438328665124 0 1 0
1242 336 4 0.44151 4.308274577743191 1.194523731174654 2.1784928338812106 -1 0 0
1439 385 6 0 1.31278616939993 5.5528747892601995 5.707735808153422 0 1 0
991 273 6 0 6.130035172379223 3.2409037514501904 8.589667413621868 0 0 -1
2182 571 4 0.44151 5.472687372448002 4.33152087058189 10.953354827661702 0 0 -1
40 12 3 -0.67874 7.322118709454637 7.346794985432293 5.528955681736177 -1 0 0
988 273 5 0.2556 6.868327555316149 1.979689620184622 9.931341663068082 0 0 -1
41 12 1 0.43128 7.6735049683033765 6.96258500312286 4.727065463625388 -1 0 0
2299 600 6 0 6.310085438998946 0.4220889024342469 -0.583515648828393 2 1 2
102 30 3 -0.67874 8.41877773341842 -0.11518194241959712 6.508207531465686 0 1 0
1262 341 4 0.44151 4.446101765315689 3.592903477315253 1.3929123259074259 -1 -1 1
937 260 7 -0.69711 5.061967999514396 7.499180696481998 10.118726485959279 1 -1 0
530 151 1 0.43128 3.0626745283135888 -0.6790198842910606 0.47184980849267877 0 -1 0
2180 571 5 0.2556 3.970355545380162 5.130955934014899 12.33080365771569 0 0 -1
1183 321 6 0 0.3745292321284164 4.179158809865896 2.2647921467481376 0 1 0
704 201 7 -0.69711 8.662924548135038 5.952396632565786 3.07528569981678 0 0 1
2181 571 7 -0.69711 4.638176428633956 4.779709228737064 10.789320231253146 0 0 -1
990 273 4 0.44151 7.578219164842247 2.8765602506454466 11.796723195574545 0 0 -1
338 97 1 0.43128 3.326383238217198 5.329440806504033 0.08619037119310768 1 0 2
528 151 2 0.24746 1.3522407380534371 0.11700092009699103 -0.027943896452403916 0 -1 0
1182 321 4 0.44151 1.968848480674748 6.971313179509888 0.7824863021619319 0 1 0
1097 300 7 -0.69711 -0.5766528724244784 0.9851739935908146 7.402826224455996 0 1 0
1261 341 7 -0.69711 4.766112264120032 3.079025643325842 2.135602371488246 -1 -1 1
772 219 5 0.2556 4.856556010424515 0.22541894644087423 12.000554201258467 0 1 0
2296 600 5 0.2556 6.9821715954458945 2.2027772011680047 -0.02496271795056637 2 1 2
337 97 3 -0.67874 4.016844940092541 4.673623393860521 0.037432517624919615 1 0 2
2183 571 6 0 2.388696487773329 5.982463375162946 11.48847921919867 0 0 -1
989 273 7 -0.69711 7.188467398522846 3.272287404068166 11.01398865205527 0 0 -1
706 201 6 0 6.706817690270473 7.302188828687003 1.9136502091731793 0 0 1
1098 300 4 0.44151 -0.049415752195780094 0.49195111129847624 6.769786435418339 0 1 0
1124 307 5 0.2556 0.9496780386645631 8.924863921199607 4.794803770045754 0 1 -1
1199 325 6 0 -0.615282920167641 0.6411040547772573 12.36334095141963 -1 0 -1
1260 341 5 0.2556 4.0974104899358705 3.798506930344554 3.5432509921975006 -1 -1 1
1263 341 6 0 5.000723085758627 2.46092910823674 4.697020050119346 -1 -1 1
1167 317 6 0 -0.3246896812619886 1.6082308049383212 4.235983753448475 1 1 1
1181 321 7 -0.69711 1.8050043723129567 6.079604525978038 1.1073248024895777 0 1 0
1165 317 7 -0.69711 0.8266091906311286 -0.49478612353540874 5.36119150052818 1 1 1
2503 651 6 0 3.1526258507750233 0.09833777186880699 7.511224591082803 1 0 1
1125 307 7 -0.69711 -0.7453391197838276 8.742181779232133 4.991225616626751 0 1 -1
1240 336 5 0.2556 4.807105841542997 -0.7049107402334012 3.1460040405336054 -1 0 0
471 135 6 0 8.864478474038561 3.7216581118955485 5.1745777518986324 0 1 0
1164 317 5 0.2556 1.421862240416376 0.6681665838106812 4.24579963954847 1 1 1
1241 336 7 -0.69711 4.081707929281217 0.2896271302114324 1.9494841225594763 -1 0 0
703 201 5 0.2556 7.712571460033287 5.6064583492651625 1.689016704995828 0 0 1
1436 385 5 0.2556 -0.31509602945835247 4.667093339659356 6.41662564246558 0 1 0
120 35 7 -0.69711 2.43136002648928 8.657550448338233 0.2378910874604485 -1 2 1
1202 326 4 0.44151 8.441065493117806 8.09664832023425 6.606900350434699 0 0 0
2066 542 4 0.44151 4.195975896772007 8.93195668216391 11.008713599820478 2 0 1
103 30 1 0.43128 8.693877379381656 -0.5108812530022263 7.333217920672686 0 1 0
609 174 1 0.43128 6.520812952511598 8.83834479433065 5.023154041133351 2 -1 1
1201 326 7 -0.69711 8.988333359082507 8.692843986347398 7.123513097101151 0 0 0
1437 385 7 -0.69711 -1.3167605995417704 5.65006148018571 5.428031556129768 0 1 0
133 38 6 0 8.736497544422498 0.45857514355899887 17.249995383244546 0 0 -1
360 103 6 0 7.549556504365125 2.19993682618935 23.78657596815937 -1 1 -1
875 244 6 0 1.8889210934838765 1.2989245985006646 19.55047966502504 0 0 0
523 149 6 0 3.745449324252915 1.707776399054881 22.96460611220005 -1 0 0
2450 638 4 0.44151 -0.4880333210710259 1.012328006658453 25.104987357345298 2 1 -1
2059 540 6 0 8.068413073547658 6.574406686058709 14.773691638083875 1 -1 0
2056 540 5 0.2556 7.003182949625122 8.197241317606101 14.364002223221636 1 -1 0
1676 445 5 0.2556 -0.25634153330307785 4.247379615160284 22.531608884319404 2 0 -2
479 137 6 0 5.4479363591377625 1.169756135397321 20.0118848036473 0 0 0
1172 319 5 0.2556 2.949466072687887 6.3241532208055675 15.967327432352462 0 3 -1
1679 445 6 0 -0.2226441649248223 4.206943253759519 24.514662138273703 2 0 -2
476 137 5 0.2556 4.892839509233859 -0.6090489634064504 20.692836727571336 0 0 0
630 180 1 0.43128 6.144806414255019 8.6172365280406 19.793179103513737 0 1 0
2002 526 4 0.44151 4.673385648594779 7.100788547247907 18.6434757752885 1 -1 0
874 244 4 0.44151 -0.8463720344265113 3.415806428777495 18.805645623553517 0 0 0
872 244 5 0.2556 0.47667531723721157 1.7661420564630732 18.238053832645946 0 0 0
1623 431 6 0 6.835849973431152 3.2348959766038403 14.245134806044076 1 0 0
1035 284 6 0 7.707730503868582 7.250219674777995 24.308214583357792 -2 2 -1
1620 431 5 0.2556 5.896943932997207 2.8492335849223114 15.950010343749234 1 0 0
2003 526 6 0 4.6788360314884985 6.854018346920441 22.172657682295167 1 -1 0
2146 562 4 0.44151 4.459691599929959 1.021985471098703 25.55323170694637 2 1 0
2145 562 7 -0.69711 4.472592065959048 0.06614380118490315 25.652057359872753 2 1 0
2031 533 6 0 -0.620072190848484 6.327380729390443 15.425997706213977 1 0 0
1174 319 4 0.44151 4.986861201278283 7.040125389958947 16.327072012638062 0 3 -1
2001 526 7 -0.69711 4.837742525126135 7.294222985753878 19.56960890023787 1 -1 0
677 193 1 0.43128 7.848155456225303 3.934467291529482 21.855969061511246 0 1 -1
2000 526 5 0.2556 4.086052531526001 6.037971597159859 20.464182879714777 1 -1 0
2028 533 5 0.2556 -1.1091668001407857 5.335075496656889 13.77879011999462 1 0 0
774 219 4 0.44151 5.91831364678007 0.2849931208273777 13.911836545739515 0 1 0
1173 319 7 -0.69711 4.346705017104679 6.62780176991247 16.91595972199738 0 3 -1
2057 540 7 -0.69711 5.551511396377349 7.28109997002908 14.369547413780332 1 -1 0
1175 319 6 0 2.017785818979138 5.535971791910671 17.530790611573952 0 3 -1
1621 431 7 -0.69711 5.645616552218421 1.2192057859480694 15.476011243706171 1 0 0
357 103 5 0.2556 8.939339185155314 1.274688786708539 22.715208312535754 -1 1 -1
675 193 2 0.24746 7.8004413157511365 4.934096797768837 20.176903853606078 0 1 -1
773 219 7 -0.69711 6.037447999678267 -0.27505015011734246 13.14177501657909 0 1 0
1032 284 5 0.2556 8.316796254095514 9.111850534535566 24.623906418800754 -2 2 -1
1622 431 4 0.44151 5.172264620041913 0.7986116096536247 16.1982166955373 1 0 0
59 18 2 0.24746 3.0432646284768 6.232913132049262 25.72335760849063 -1 0 0
1678 445 4 0.44151 0.16149959847250384 2.3468712231463744 21.529000861386514 2 0 -2
2801 726 7 -0.69711 4.215466870941916 -0.42112643127979354 17.0667422525379 1 0 -1
2730 708 4 0.44151 5.497104689049393 -0.9300328058353574 24.60041890745829 1 0 -1
1677 445 7 -0.69711 0.1211744911186996 2.575023323612424 22.46299042690955 2 0 -2
2803 726 6 0 2.4155385976881982 -0.6958977593808165 15.148067249609266 1 0 -1
1783 471 6 0 0.8087688077557398 7.892894612478456 20.17082061761092 0 2 0
676 193 3 -0.67874 7.20253326729777 4.096433876645348 21.16487951988122 0 1 -1
2802 726 4 0.44151 4.824740638152771 -0.7373437676672592 17.73953436860382 1 0 -1
521 149 7 -0.69711 4.248483307429882 2.971271053599023 25.231150396984546 -1 0 0
2058 540 4 0.44151 4.840426702772967 7.9002597394920695 14.179801774634313 1 -1 0
520 149 5 0.2556 3.57389309259555 3.5201383651342537 23.75151832646045 -1 0 0
873 244 7 -0.69711 -0.10268646108822477 3.0128135471596025 19.26427893538827 0 0 0
1780 471 5 0.2556 1.9255046622999745 9.034730897540147 21.347790873491547 0 2 0
522 149 4 0.44151 4.2687913575940275 3.7345748287017884 25.81826938562526 -1 0 0
680 194 4 0.44151 1.4619300738058256 7.738049026559324 34.3865441631153 -1 0 -1
1586 422 4 0.44151 8.007655057213052 1.1355466047075722 37.515518320590544 -1 1 0
514 147 4 0.44151 5.018167803098689 7.246544335496722 29.92541487378288 1 1 -1
2485 647 7 -0.69711 3.3326274909899922 6.619562331885686 28.977708913535466 0 1 0
2620 681 5 0.2556 4.4704968241142735 7.410198311592584 35.757239124731896 1 1 0
2448 638 5 0.2556 0.6862641527447662 1.5178724673064243 26.88067917043807 2 1 -1
2616 680 5 0.2556 8.19939986399004 0.20299114440592736 33.0250262788002 1 1 0
2283 596 6 0 -0.4866802635673795 4.109987068060264 29.048342405103302 0 0 0
2484 647 5 0.2556 2.5963591756158486 5.586605661451372 30.13568052683104 0 1 0
1041 286 7 -0.69711 -1.1643212074937752 8.097523124120553 27.97270908459558 0 0 0
127 37 7 -0.69711 -0.6812843145956725 3.275096278315176 36.943302648256605 0 1 0
2617 680 7 -0.69711 8.197013678658598 -0.7393778980676436 31.591062726307786 1 1 0
1460 391 5 0.2556 8.919889682331654 9.134378621076154 27.891677800523155 0 1 -1
1890 498 4 0.44151 0.41190806127176427 8.55004793977421 28.726117405756202 1 0 0
2619 680 6 0 6.2183083914634505 0.14598473027776793 33.1050419610398 1 1 0
513 147 7 -0.69711 5.816382615432915 7.5959706213667495 30.33704830720871 1 1 -1
1544 412 5 0.2556 4.2704275135873 2.9278307310096796 34.042501658487296 1 0 2
60 18 3 -0.67874 3.4120642143412674 5.195181806177794 26.62991827778118 -1 0 0
781 221 7 -0.69711 8.065351095875357 6.167793322197359 29.182909915167944 -1 0 0
2409 628 7 -0.69711 8.354931028684762 8.981911180453272 36.923092613477195 1 0 -1
834 234 4 0.44151 0.3507832854154018 2.7035002282907534 35.52494018673802 0 1 0
2707 702 6 0 8.840496788655598 4.133623613318445 34.437766529106625 0 0 -1
336 97 2 0.24746 4.816764037193078 4.944306414639957 39.13622531817691 1 0 1
1547 412 6 0 5.460123564237862 4.464661629886614 33.64659078340976 1 0 2
2456 640 5 0.2556 2.976786559371038 -0.2586110765207187 36.84613942185004 1 1 -1
61 18 1 0.43128 3.2984292671858038 5.5200759637196555 27.52312137174713 -1 0 0
780 221 5 0.2556 7.7328512143731185 5.745658698103276 27.55316665418365 -1 0 0
679 194 7 -0.69711 0.9501684787779787 7.5290671732770615 33.600795498838224 -1 0 -1
126 37 5 0.2556 0.06029138331943118 3.9126503447532235 38.35394620755254 0 1 0
512 147 5 0.2556 5.46041867470935 7.7624991093438265 32.00703375389571 1 1 -1
2298 600 4 0.44151 7.972273119158936 3.3893327917076457 38.66792378510581 2 1 1
1545 412 7 -0.69711 2.954918675724553 3.987160747559477 34.35138767046455 1 0 2
2297 600 7 -0.69711 7.572224009245396 2.513114955542759 38.638102834844304 2 1 1
2621 681 7 -0.69711 3.3644218639687153 6.82221641325028 34.58228988217597 1 1 0
1585 422 7 -0.69711 8.460311256782303 0.5147807330255536 36.936951554617096 -1 1 0
1546 412 4 0.44151 2.207716532969863 3.426760417902578 34.58122373163276 1 0 2
681 194 6 0 -0.6003155065795235 6.013079030676635 32.08607197430183 -1 0 -1
2706 702 4 0.44151 8.916224810227767 7.0678979438717615 36.41230143649939 0 0 -1
833 234 7 -0.69711 0.8918641787233965 2.4333057719354447 34.77635373677204 0 1 0
2622 681 4 0.44151 3.3980331671790722 5.861533898907069 34.63864506458859 1 1 0
122 35 6 0 1.0321467012796748 7.517180167229007 38.54967935697063 -1 2 0
129 37 6 0 1.8402845457544794 3.8647069251536097 37.47982178618243 0 1 0
2705 702 7 -0.69711 8.869812375390914 6.143428592200838 36.15681341031964 0 0 -1
2486 647 4 0.44151 2.8103268615946257 7.415984565163127 28.961017103695266 0 1 0
2487 647 6 0 3.96154629920862 4.1852545590661565 29.806186204609222 0 1 0
782 221 4 0.44151 7.289728429938673 6.6434188890178865 29.502851625626548 -1 0 0
2704 702 5 0.2556 8.973581892166552 6.113030112104479 34.44430210430494 0 0 -1
835 234 6 0 1.3390848134175601 1.2704582510276494 32.441237092173836 0 1 0
119 35 5 0.2556 2.2628869331366506 9.049451402875489 38.8205010407592 -1 2 0
832 234 5 0.2556 -0.15209687190838572 1.5810067166386514 33.71297231379823 0 1 0
2670 693 4 0.44151 -1.0080923911753208 8.38837322056112 32.977632095660994 0 0 1
1889 498 7 -0.69711 1.1676136102342984 8.889170010053489 29.21764939646789 1 0 0
678 194 5 0.2556 0.2913180684470613 5.964035451697008 33.857234981525934 -1 0 -1
515 147 6 0 7.283593074620139 8.458813806879805 32.36080220517364 1 1 -1
2248 588 5 0.2556 8.422084897795937 0.4386050610630363 26.765937630773017 1 0 -1
2451 638 6 0 0.2804363647726331 0.4686436414407822 28.514602081739152 2 1 -1
2144 562 5 0.2556 4.595749706205516 -0.2403623115745699 27.33612758857161 2 1 0
1442 386 4 0.44151 9.002252185055308 5.227100657853751 37.60715867449858 1 2 1
2449 638 7 -0.69711 -0.5017071404393565 0.6523993356138291 25.993891102279257 2 1 -1
1703 451 6 0 2.3933152268650155 18.807190372056617 6.006744567811197 0 0 0
1114 304 4 0.44151 0.9606481730867822 14.519900685209416 7.935274605853362 0 1 1
1525 407 7 -0.69711 3.813697493365205 13.874758190913505 4.802681013906019 1 -1 0
1113 304 7 -0.69711 1.0472800757006193 13.561277077774294 7.909389643248952 0 1 1
1920 506 5 0.2556 -0.9103770309334784 10.614585672374048 -0.5366936588601549 1 1 0
707 202 2 0.24746 4.229426466472954 17.439257157752635 9.304857485518994 0 0 1
2633 684 7 -0.69711 -1.130784517007997 18.83640922859454 -0.8771344065226181 1 -2 0
2065 542 7 -0.69711 3.691964834158071 9.632844959482517 11.431709644877918 2 0 1
1091 298 6 0 0.3029301564314344 14.967422036325793 0.47561377156384466 1 0 0
2236 585 5 0.2556 4.027400176176336 12.221892903756155 1.8198406194350571 0 0 1
294 84 1 0.43128 -0.8684354227694792 18.456580820805492 0.9602850768678153 -1 -1 1
1526 407 4 0.44151 3.7705938902220586 13.454220366152368 5.667921341229912 1 -1 0
1115 304 6 0 0.21503085612176154 11.073035491866193 8.245916756928906 0 1 1
10 3 6 0 7.497675901572704 16.87259777521183 9.42915639344393 1 1 1
9 3 4 0.44151 6.495954934362084 15.824471836331426 6.201618375938064 1 1 1
709 202 1 0.43128 5.5791885795261065 17.366773257116947 7.8998882352954904 0 0 1
8 3 7 -0.69711 6.4609800511525135 16.125247195524636 7.112935786174971 1 1 1
1127 307 6 0 0.710871096545914 10.800342864445346 4.194566444158604 0 1 -1
863 241 6 0 8.806068504658253 10.239099295077436 1.8272327355907758 -1 3 1
608 174 3 -0.67874 6.095432684221618 9.663403021154009 4.80188808976634 2 -1 1
2073 544 7 -0.69711 -0.7567073322476012 15.830769893044828 7.146310601120106 1 1 0
1287 347 6 0 8.93872434375028 15.158423898171502 4.57265406111607 0 1 0
939 260 6 0 6.7496145160614365 9.467796751843458 10.649977950101338 1 -1 0
607 174 2 0.24746 4.876668818459199 9.75437689197091 5.5355229048684915 2 -1 1
1774 469 4 0.44151 2.7302046916409415 13.055836430327213 7.845251393356104 1 2 1
1772 469 5 0.2556 4.746930156209543 13.650773739816461 8.454860806386952 1 2 1
1524 407 5 0.2556 2.3691513302430423 14.785111317300267 4.637045168415116 1 -1 0
1773 469 7 -0.69711 3.5912103494724255 12.862487484171957 7.460633376120542 1 2 1
2238 585 4 0.44151 4.364871356247914 10.145334045245807 2.428336535595419 0 0 1
827 232 6 0 -0.6723872979152109 9.672900894522833 12.152205476233645 0 1 1
7 3 5 0.2556 8.090063832333978 16.273124867880732 7.633145609235992 1 1 1
1112 304 5 0.2556 -0.4418446323217716 12.930037004002937 8.482983910656834 0 1 1
708 202 3 -0.67874 4.891846432405514 17.97324771384442 8.161816929661963 0 0 1
2239 585 6 0 2.884498776069959 12.48234071529374 0.21929477612640502 0 0 1
1285 347 7 -0.69711 6.297635856563464 15.11190789076121 4.716946725398074 0 1 0
1284 347 5 0.2556 7.4192482401547775 13.990007139191302 4.061133419846607 0 1 0
2075 544 6 0 0.5176323859638674 16.61127193617463 9.329480123343666 1 1 0
1700 451 5 0.2556 1.0187381056940805 18.068448352689412 4.78137220158359 0 0 0
388 112 1 0.43128 6.188285348630219 17.154912486376144 -0.05505750174443269 1 0 0
1286 347 4 0.44151 5.423418076499315 14.733044961700573 4.575262605494515 0 1 0
1798 475 4 0.44151 8.581091823279873 18.796112260706085 2.4611880557697816 0 0 1
2237 585 7 -0.69711 3.8579279180355392 10.517810044403252 1.7000337006882367 0 0 1
1775 469 6 0 6.228377290832112 12.986054332358963 7.316758290126755 1 2 1
2067 542 6 0 2.288094705271696 11.877581062651524 11.47769367444577 2 0 1
1527 407 6 0 2.922669119232209 15.397754287342575 2.8328035854247964 1 -1 0
2064 542 5 0.2556 3.2243111235118915 10.708135089281969 10.176896530936505 2 0 1
387 112 3 -0.67874 6.527672936815108 16.26673235350023 -0.12395541159962586 1 0 0
2246 587 4 0.44151 6.068948680318286 19.314578971644377 -0.1120700448849159 1 -1 -1
293 84 3 -0.67874 -0.6467654405156921 18.36973967163552 1.8850432462633533 -1 -1 1
1796 475 5 0.2556 7.667687480160854 18.2949097889132 4.387931405462542 0 0 1
386 112 2 0.24746 6.955383210540534 15.84438734994039 1.1678523555044098 1 0 0
1701 451 7 -0.69711 1.5263272849882896 19.12583298982851 3.5281633526028084 0 0 0
1200 326 5 0.2556 8.327861916147393 10.261679086934091 6.902049595148903 0 0 0
1191 323 6 0 -1.094723441348739 14.082296809633817 4.488617350890714 0 0 1
2072 544 5 0.2556 -1.0569109426010206 17.122688124595598 8.236450498298337 1 1 0
1702 451 4 0.44151 0.9607693545167861 18.93795837914285 2.771298468047601 0 0 0
121 35 4 0.44151 3.0312738229439384 9.314911199247174 0.6120540551498956 -1 2 1
1797 475 7 -0.69711 8.05217590652758 19.323131584563093 3.068550224066107 0 0 1
629 180 3 -0.67874 6.596030606402527 9.45782403981749 19.82742836533596 0 1 0
241 69 1 0.43128 1.7796202688338072 13.867710420485142 18.46464393976886 0 -1 0
1962 516 4 0.44151 -0.5988239362998821 10.629137098932416 16.88966704646061 -1 0 0
2762 716 4 0.44151 7.28111220851758 10.156120512927407 21.4024937478255 1 1 0
1477 395 7 -0.69711 1.7046885469650555 15.798015607563933 18.21420021803877 1 0 1
2763 716 6 0 6.313451321337589 12.475402890289386 23.889198185842275 1 1 0
1978 520 4 0.44151 0.6836621325335739 12.587077242038836 16.810722750758426 0 0 -1
89 26 6 0 2.8563662613363645 10.03300753367462 24.696616916814918 0 0 2
969 268 7 -0.69711 5.617943760593633 17.86112897734 14.302369237429886 0 -1 0
2760 716 5 0.2556 5.701142682550326 11.19542070099148 22.502971516025294 1 1 0
2465 642 7 -0.69711 3.873967100604606 9.540331962085295 14.028398739771804 0 0 0
1403 376 6 0 3.449206551812196 14.826066532740418 22.092054473949005 0 -1 1
1977 520 7 -0.69711 -0.015452326176608633 12.48847073693118 16.15596182838052 0 0 -1
970 268 4 0.44151 4.947292449151227 18.126711037515385 14.94260584296111 0 -1 0
1400 376 5 0.2556 1.827466592854639 15.677187898491304 22.85489443714807 0 -1 1
2467 642 6 0 3.2376189915050864 9.88399380666065 16.5723897252149 0 0 0
2255 589 6 0 8.96591990402722 16.11665833414207 15.147486774989599 1 0 1
1323 356 6 0 5.12446661798363 12.857139663506603 12.592164139285357 0 0 3
1138 310 4 0.44151 4.814853775327969 16.427372386916687 17.813561494667425 0 0 0
87 26 7 -0.69711 1.5919729936325933 11.935505367232954 23.36302787011094 0 0 2
1478 395 4 0.44151 2.6263306090903917 16.07656517278929 18.196601993661762 1 0 1
1136 310 5 0.2556 5.193265778566717 17.53467300240754 19.66481731287365 0 0 0
942 261 4 0.44151 4.58262879658682 15.353415596108189 15.389880470348611 0 0 -1
1321 356 7 -0.69711 5.0696247392475895 15.348827650898134 13.481023737223877 0 0 3
1821 481 7 -0.69711 8.101746254931639 13.355722697001795 21.058334296903723 1 0 0
1822 481 4 0.44151 7.573614785240716 12.764313601841131 21.597784114539344 1 0 0
1322 356 4 0.44151 5.446652304294517 16.211374523697504 13.677301886025717 0 0 3
1582 421 4 0.44151 0.6598663677234966 18.469369831884553 25.601951441013643 1 -1 0
240 69 3 -0.67874 1.7325797252222754 12.913671628050967 18.370171838699363 0 -1 0
86 26 5 0.2556 2.7599954789188397 12.013188363194732 24.617161771423337 0 0 2
2464 642 5 0.2556 2.620559298408412 10.444957327692695 14.772145123165588 0 0 0
1137 310 7 -0.69711 4.232225369409279 16.958307092471706 18.365342746096896 0 0 0
2466 642 4 0.44151 3.772066140863849 9.667560335412864 13.0819547402143 0 0 0
2252 589 5 0.2556 8.638389815012204 17.119436356651978 16.82803811888502 1 0 1
943 261 6 0 5.396494227190554 13.742023828259292 18.434732978966437 0 0 -1
941 261 7 -0.69711 4.696200700003553 15.18435054320684 16.32966042659775 0 0 -1
2761 716 7 -0.69711 7.324576375494656 10.807523158903418 22.104685039159925 1 1 0
1476 395 5 0.2556 0.9335262589388664 16.765583748306618 19.403776724088708 1 0 1
1401 376 7 -0.69711 0.8875774007996022 14.29226118971344 22.476759067893596 0 -1 1
88 26 4 0.44151 1.3741688874525004 12.84409019168238 23.140576948920565 0 0 2
1581 421 7 -0.69711 1.2954186489822939 17.773035778114856 25.79018191774426 1 -1 0
1402 376 4 0.44151 -0.0031406473459760775 14.482618757653436 22.774894958970624 0 -1 1
1976 520 5 0.2556 0.3640309628850482 13.57282194851676 14.881394320444057 0 0 -1
53 16 2 0.24746 6.512141331234112 16.249485253539213 24.77575345663823 0 0 1
940 261 5 0.2556 5.362657141299178 13.607444978546079 16.45562524511875 0 0 -1
265 77 5 0.2556 8.462749429175801 11.865965767538258 15.450553659877116 -1 1 2
1479 395 6 0 -0.7996409989846642 15.860981481030809 19.0642388928451 1 0 1
1979 520 6 0 -1.2568432712784645 13.017190365365032 13.880684570431585 0 0 -1
239 69 2 0.24746 2.1913336671082533 12.31754049494446 19.58152819665858 0 -1 0
537 153 1 0.43128 3.775581143188713 17.818180753038636 16.751169439336163 1 0 2
1782 471 4 0.44151 0.8588451092837595 10.588532071120131 22.457185417593653 0 2 0
628 180 2 0.24746 6.689305411427764 9.973313571947644 18.501220136619814 0 1 0
1320 356 5 0.2556 6.336636811145397 14.414437316893597 12.796048446082944 0 0 3
55 16 1 0.43128 4.7480091817364185 17.054521427548305 25.002296935386553 0 0 1
54 16 3 -0.67874 5.16287613223148 16.223401032908615 25.23398322364982 0 0 1
1781 471 7 -0.69711 0.5451993428596353 9.927542999591372 21.8391558583479 0 2 0
1820 481 5 0.2556 8.376500546466968 14.757319908677324 22.00818799713127 1 0 0
971 268 6 0 7.595139858324581 18.27967291013337 12.594114880953937 0 -1 0
536 153 3 -0.67874 3.8082989661084374 18.56843624387254 16.161068095776994 1 0 2
1139 310 6 0 3.636667979859239 18.491860126106076 20.437250029302575 0 0 0
1043 286 6 0 -0.29079402658628384 9.507091903425335 25.90718472746515 0 0 0
2685 697 7 -0.69711 3.743695433252502 18.732999366863798 24.919132841732274 1 0 1
968 268 5 0.2556 6.407997911793236 19.303682767985322 13.809741126838542 0 -1 0
2686 697 4 0.44151 2.8546279175410447 18.422236083664732 25.092289197229547 1 0 1
118 34 6 0 -0.8328724767784126 13.784191397595631 25.13258042562992 0 0 1
1961 516 7 -0.69711 -1.3223591271661166 10.112294224925035 17.252442485271725 -1 0 0
767 217 6 0 -1.346034757157976 17.513362455474496 12.704902369107206 0 -1 -1
726 207 4 0.44151 -1.3792466052041021 9.67426225121892 22.316283169115987 1 -1 1
1298 350 4 0.44151 5.22127748397088 14.669832702464472 26.492339316657883 0 -2 -1
2440 636 5 0.2556 7.856806843402435 17.940074876592522 30.016885733537286 -1 1 -1
1580 421 5 0.2556 0.4222986182485431 16.53180295070302 26.591393122570285 1 -1 0
1297 350 7 -0.69711 5.503902415128981 14.112741376907397 27.219058564755134 0 -2 -1
152 44 1 0.43128 -1.1801103906934196 13.851694578184581 35.00515986873559 -1 0 -1
808 228 5 0.2556 2.9511527316106 14.956553414384961 34.783975108784446 1 0 -1
2247 587 6 0 6.5136947815887725 18.67299816213405 36.68306832294307 1 -1 -2
2039 535 6 0 0.6286576466719889 17.439697903669 36.396913909121054 0 1 -1
1465 392 7 -0.69711 6.5704615816965415 11.25652273970058 35.887900942558545 1 1 -1
1216 330 5 0.2556 1.3754457819219197 14.04854658789766 30.44791007940122 1 -1 0
1902 501 4 0.44151 -1.329574311729393 12.120764296599203 36.23748732529067 1 -1 0
1464 392 5 0.2556 6.511701675319739 12.142387289361388 37.357751534532156 1 1 -1
1219 330 6 0 0.08867897966735905 13.769015604251285 28.96425111931068 1 -1 0
1218 330 4 0.44151 1.4307396575777491 16.06489875296224 31.30072587118344 1 -1 0
2036 535 5 0.2556 -1.1725466613140205 17.075687751217046 35.648968835223314 0 1 -1
210 61 7 -0.69711 -0.3071733708889406 10.108560121484572 35.59919069754223 0 -1 0
1466 392 4 0.44151 6.971640393288968 11.841257366173544 35.23758975322025 1 1 -1
209 61 5 0.2556 0.9795282553732703 10.893324607516556 34.777933686690005 0 -1 0
1762 466 4 0.44151 0.1624688417602238 17.648983700263102 29.735677366879912 0 -1 -1
1761 466 7 -0.69711 -0.42618990771023557 18.408307818432775 29.71461183466909 0 -1 -1
809 228 7 -0.69711 1.8900893382278294 14.268136494520773 33.62317783511337 1 0 -1
1583 421 6 0 2.062957410427242 15.427333671528647 26.74429224853887 1 -1 0
1299 350 6 0 6.3490772420950305 13.626811443713663 29.676167880628597 0 -2 -1
1296 350 5 0.2556 5.850337304617326 15.166011341285753 28.527830955312098 0 -2 -1
1088 298 5 0.2556 -0.11624542923109304 15.465394004776844 38.847177802105804 1 0 -1
713 204 2 0.24746 3.5419482214265754 16.67975241944706 38.660188551958655 0 -1 2
2623 681 6 0 4.04836945690237 9.284792567073888 35.26453556444493 1 1 0
151 44 3 -0.67874 -0.6734762655261771 14.095411424894023 34.23201547496991 -1 0 -1
699 200 5 0.2556 7.64873792906282 11.94411073718458 32.40431643938713 0 0 -1
1467 392 6 0 5.66882845833931 10.606964446953528 38.289488516360066 1 1 -1
585 167 1 0.43128 5.541897925910474 11.680406717144043 26.801049713621104 1 1 1
1090 298 4 0.44151 -1.038243489681307 13.899560629383869 37.62726371985782 1 0 -1
1217 330 7 -0.69711 0.9009910492508819 15.691533418453531 30.588453510463093 1 -1 0
810 228 4 0.44151 1.0416412390067569 14.163891955828493 34.06255580041859 1 0 -1
583 167 2 0.24746 5.285675931453405 10.620867596786924 28.418272646164613 1 1 1
702 200 6 0 5.700920162815779 11.802635064485465 32.74802893515756 0 0 -1
2443 636 6 0 7.397472586369419 18.28066675750284 28.117174492126473 -1 1 -1
212 61 6 0 1.6204397174425034 11.695728507862073 36.4756244650323 0 -1 0
584 167 3 -0.67874 5.711356090126185 10.779988361263646 27.067828732015414 1 1 1
811 228 6 0 4.43938316212382 14.961756635514956 33.47135756161762 1 0 -1
2410 628 4 0.44151 7.8580108867168 9.619309278714507 36.394432073600896 1 0 -1
186 54 6 0 8.983321186039376 15.231195889639146 36.533055584797154 1 1 1
2175 569 6 0 9.019081654006103 12.869864532884854 26.997732862446266 1 -1 -1
700 200 7 -0.69711 7.909354088561573 12.57988254296544 33.97691727740789 0 0 -1
2218 580 4 0.44151 8.336372865561781 18.58321857444871 39.14454566771205 1 0 1
714 204 3 -0.67874 4.643353869889956 15.921516361313074 38.168275623047734 0 -1 2
915 254 6 0 5.378701789725396 18.771657936680523 32.2586378211186 -2 0 0
1891 498 6 0 2.3478605932121193 10.19124767251597 31.193306618555614 1 0 0
211 61 4 0.44151 -0.7954988864417611 9.618603369541699 34.927697978126815 0 -1 0
701 200 4 0.44151 8.855288112424608 12.739392184440064 34.047926092791144 0 0 -1
1089 298 7 -0.69711 -0.7494709508549252 13.900109957241922 38.54334539882005 1 0 -1
715 204 1 0.43128 5.347305337311267 15.958306452392549 38.81027496322271 0 -1 2
1888 498 5 0.2556 0.5230483985254046 9.731439804770854 30.566934559392266 1 0 0
2245 587 7 -0.69711 6.366985324641448 18.9149179038257 39.31370239645425 1 -1 -2
1516 405 5 0.2556 8.715916854455791 21.34323077577235 10.886436439936244 1 0 1
2651 688 6 0 6.2226308072924095 23.707245085759258 -0.6925950479286591 1 0 2
1759 465 6 0 -0.5633244068621837 25.450473213937958 10.274287549503958 1 -1 1
1669 443 7 -0.69711 6.1951602886635895 27.6981026784516 9.100835366659423 0 1 1
1729 458 7 -0.69711 5.662400215466005 27.083968548555013 0.47211757811015365 0 0 1
18 6 5 0.2556 4.443814718150305 20.210093135816464 2.445139095008196 1 0 1
1731 458 6 0 4.3357279870507455 25.708147016703037 2.303316802477275 0 0 1
1346 362 4 0.44151 7.407557864328737 26.77220832998599 5.385804729697236 1 0 0
1347 362 6 0 6.459898623663931 23.530754501044843 4.311065866971668 1 0 0
1799 475 6 0 6.654424535808069 19.753027126543905 5.271584368066375 0 0 1
1990 523 4 0.44151 0.21642277957520295 22.112142535582656 6.001231643086937 1 1 1
1991 523 6 0 -1.1871861127457592 21.760982077442513 9.231685297244661 1 1 1
475 136 6 0 8.579026594336778 25.01704930504919 9.906910224923545 0 1 -1
2149 563 7 -0.69711 1.3974150600918342 22.075939981868387 4.486518126405773 0 1 0
1813 479 7 -0.69711 -0.8766478466825772 21.27018333694117 12.320092111296605 0 1 0
2151 563 6 0 1.0402914389125404 24.693157533191158 4.330310287499627 0 1 0
2643 686 6 0 -0.8761665581252865 25.939153612425503 0.5883246364198425 2 0 -1