LAMMPS data file via write_data, version 29 Aug 2024, timestep = 1000000, units = real

2559 atoms
7 atom types
1830 bonds
5 bond types
1101 angles
3 angle types
1116 dihedrals
3 dihedral types

-0.5366158034381776 39.47773580341993 xlo xhi
-0.1932104027977921 38.93032040279161 ylo yhi
-0.09013628330158241 38.52835628329487 zlo zhi

Masses

1 1.008
2 15.011
3 15.999
4 1.008
5 14.011
6 15.011
7 15.999

Pair Coeffs # lj/cut/coul/long

1 0 0.4
2 0.239639 3.7543
3 0.174632 3.03
4 0 0.4
5 0.171477 3.4612
6 0.238761 3.6072
7 0.169017 3.1496

Bond Coeffs # harmonic

1 1000 1.4246
2 1000 0.9451
3 1000 1.9842
4 1000 1.71581
5 1000 0.95053

Angle Coeffs # harmonic

1 1000 108.53
2 1000 106.368
3 1000 90.95

Dihedral Coeffs # quadratic

1 1000 180 
2 1000 180 
3 1000 180 

Atoms # full

1287 367 4 0.44151 2.5693815337094157 1.2464996537417097 5.5948150534700645 -1 -1 1
2059 587 5 0.2556 1.5032317743308012 9.410830473339137 4.079261037389922 0 0 -1
1317 376 7 -0.69711 5.886106452083229 8.31908012831311 9.011791184937827 0 2 2
258 73 3 -0.67874 4.153433716367858 6.234698945333873 4.520328471315698 0 0 0
1413 403 6 0 0.026288599792083533 5.731756608306109 7.994294207670219 1 1 0
1773 506 2 0.24746 5.975758533405277 2.4343123369271815 1.5437941150275756 0 -1 0
1703 486 7 -0.69711 6.387265850256501 6.322309118126429 6.715477623898574 0 1 1
479 135 7 -0.69711 6.888434131164564 4.270660690892567 10.801511817122712 1 -1 1
1285 367 5 0.2556 0.6436619746553394 1.620037463117481 4.621537626425003 -1 -1 1
115 31 2 0.24746 9.243202908168874 7.078555524803945 11.211221573296973 -1 3 1
2061 587 4 0.44151 2.325057994927184 7.399915856493602 3.795840597845183 0 0 -1
1410 403 5 0.2556 0.9399937794922044 6.610568944048995 6.4678968233627945 1 1 0
562 160 2 0.24746 2.185122025316585 3.26743258339902 1.7576006798880097 -1 0 1
1319 376 6 0 3.657082442905889 8.729262925482479 7.646970262136697 0 2 2
1412 403 4 0.44151 2.8607818979059565 5.745034410072707 5.8730248197773 1 1 0
2298 654 1 0.43128 9.280580801574827 2.7271679287534942 8.842870843952245 0 -1 0
1774 506 3 -0.67874 5.408649961258217 2.5714415758900593 0.24343694133954802 0 -1 0
2060 587 7 -0.69711 1.4397277283283973 7.749999771959208 3.650102537894996 0 0 -1
1704 486 4 0.44151 6.313358767568283 7.012506610297242 7.382326783129092 0 1 1
917 262 3 -0.67874 2.9954337639378528 2.782376807991886 6.848650106291571 0 -1 0
1286 367 7 -0.69711 2.1092419298750316 0.7683364133016002 4.898409556493196 -1 -1 1
1705 486 6 0 7.187120986351293 3.988036064934808 5.764706191061552 0 1 1
117 31 1 0.43128 7.599136790939198 6.063547242199657 11.496461471391337 -1 3 1
259 73 1 0.43128 4.8824203073686805 6.210434806630868 5.137294748082596 0 0 0
918 262 1 0.43128 2.6491939186068585 3.6622833579839247 6.708208762337448 0 -1 0
786 224 7 -0.69711 0.0120531677752026 5.576502193257466 2.9522429491547966 1 1 0
564 160 1 0.43128 3.7154755712060314 3.0898430142909574 0.554862250143525 -1 0 1
257 73 2 0.24746 4.68291522990896 6.260716057362163 3.1973978373546754 0 0 0
1900 542 6 0 5.6845261610282645 0.4464339324595402 5.037454167454124 1 0 0
1702 486 5 0.2556 7.32648686836917 5.071001521716575 7.420949670541317 0 1 1
2189 622 6 0 -0.4784933458616892 1.634598686922772 8.45596187927575 1 0 0
478 135 5 0.2556 5.530968626349492 3.5381593247329497 11.554723051203917 1 -1 1
916 262 2 0.24746 3.5368882806712136 2.7147682623198452 8.165886773928793 0 -1 0
1318 376 4 0.44151 6.444693751249891 7.865755419551137 9.647291194185648 0 2 2
480 135 4 0.44151 7.256088248280191 3.6095878871164273 10.205904707276156 1 -1 1
787 224 4 0.44151 0.38892291241712895 6.411705415729887 3.243630749407789 1 1 0
2297 654 3 -0.67874 8.336288353497205 2.7047990268921938 8.98531694023768 0 -1 0
1411 403 7 -0.69711 2.2437675185468398 5.499098769162623 6.5687721244641635 1 1 0
2296 654 2 0.24746 7.922357080650574 1.3417522204066563 9.052902533400164 0 -1 0
563 160 3 -0.67874 2.8682289297327377 3.539955526783457 0.5352297007053158 -1 0 1
116 31 3 -0.67874 7.823859114468837 6.938975305901635 11.179897235859505 -1 3 1
1288 367 6 0 0.11430589367647037 0.3271064417795667 3.213786408752435 -1 -1 1
802 229 5 0.2556 9.132558743521802 4.252453269126216 2.702279090676773 1 1 0
481 135 6 0 5.174162252216322 5.190281890662054 12.59330226810431 1 -1 1
1316 376 5 0.2556 4.382154348886885 7.491415803252001 9.017305921208958 0 2 2
2092 595 4 0.44151 7.830028370219454 6.742988039119337 19.987734158292604 1 -1 -1
559 159 7 -0.69711 2.216045508617612 4.435548076020869 14.017707562346644 -1 0 1
1971 562 7 -0.69711 6.108890075887231 6.5769776286502175 19.16339893476352 1 2 -2
2514 714 6 0 -0.3600700325125429 5.5750450693033535 19.133568972475306 1 0 -1
2091 595 7 -0.69711 8.682439830242947 6.846882511179626 20.42467555437756 1 -1 -1
1005 287 5 0.2556 2.218254837430851 3.2709464412226628 20.728283822158627 1 -1 -1
2456 699 4 0.44151 5.714046681485835 1.1295074484870284 13.820862147072456 2 1 1
1007 287 4 0.44151 0.060720823948964164 3.4377978471065314 21.082094502300258 1 -1 -1
2558 729 3 -0.67874 4.763888339684527 8.645362253926178 20.42001445815615 1 0 0
1970 562 5 0.2556 5.271480452998364 6.12248694632503 17.735817410089417 1 2 -2
561 159 6 0 2.6612306167159643 4.176534643348705 16.612173486958465 -1 0 1
928 265 1 0.43128 8.2706489495163 7.125087756323883 24.96402636460017 0 -3 2
1973 562 6 0 6.662766943030567 4.7748500455115614 17.309295502622824 1 2 -2
604 172 5 0.2556 4.046064651675745 7.13777918557735 25.204961264596488 -1 -1 0
1542 439 3 -0.67874 3.9033893366977903 1.8678160141361544 13.762759294432852 0 0 1
1543 439 1 0.43128 3.298779054778663 2.6084751806193585 13.82016560290729 0 0 1
1006 287 7 -0.69711 0.7937313710282448 4.014062305365838 21.331057694265102 1 -1 -1
2237 636 1 0.43128 6.316327279657273 2.1024264432120647 19.02558747635033 0 0 1
1676 478 1 0.43128 8.291332407909838 7.367118962966712 22.39340209293208 -1 1 0
2494 709 4 0.44151 8.856721076695226 2.4197215998926924 18.568236825282465 0 2 1
606 172 4 0.44151 2.166269387409871 7.682932297208676 24.219391837452925 -1 -1 0
2493 709 7 -0.69711 8.223270054512914 2.354727045093462 19.29122171215205 0 2 1
2455 699 7 -0.69711 6.623118968156148 0.8375996187920889 13.93624830826958 2 1 1
551 157 5 0.2556 4.445070783560605 0.39229654365638744 22.57888181092936 1 0 0
558 159 5 0.2556 1.1387052036714214 4.308130027764643 15.3472679882571 -1 0 1
605 172 7 -0.69711 2.7279447776636228 8.171966968574985 24.831326882735997 -1 -1 0
2492 709 5 0.2556 8.335631725627383 3.828033744762009 20.164834597994826 0 2 1
2457 699 6 0 9.129931399803922 1.0759718588126008 14.740963525370374 2 1 1
552 157 7 -0.69711 3.8095758938190434 0.02557247169256366 24.131737821332663 1 0 0
2236 636 3 -0.67874 5.369513103304077 2.199202225573781 18.915287126793864 0 0 1
2454 699 5 0.2556 7.435635190333824 2.107986066050353 14.75331099226833 2 1 1
140 38 1 0.43128 1.218506980022838 5.720107880065648 22.375747343224226 0 0 0
1008 287 6 0 3.330607244996633 4.743483045409468 21.455273256524613 1 -1 -1
2453 698 6 0 -0.20999458029462426 1.0221123293471377 22.396221546252825 0 1 3
560 159 4 0.44151 1.6654257645330794 4.515671836631338 13.232320814662799 -1 0 1
553 157 4 0.44151 3.7879288300965737 0.8590088659271742 24.61753334661067 1 0 0
1675 478 3 -0.67874 7.814918359600039 7.555246118450628 23.196910302495375 -1 1 0
2235 636 2 0.24746 4.9463762297784575 1.3286463295470474 17.869127961866877 0 0 1
1972 562 4 0.44151 5.583477073652162 7.272781871038708 19.5736155427492 1 2 -2
1674 478 2 0.24746 7.366162182264843 8.907046484809378 23.151517393158073 -1 1 0
2012 573 6 0 1.5862895706893916 8.488323335018332 15.406631287955818 1 -1 2
2495 709 6 0 6.941213853876191 3.2174737023470055 21.43685748230055 0 2 1
72 19 6 0 0.049401582977449454 3.7496649454701942 25.298695642819865 -1 2 -3
2557 729 2 0.24746 3.761359455973052 8.656479441738348 21.43512134002521 1 0 0
139 38 3 -0.67874 1.1113579938650573 6.595234995703709 22.75576146050277 0 0 0
927 265 3 -0.67874 8.852155186133313 6.671015200708002 25.573496740597275 0 -3 2
926 265 2 0.24746 8.828146355048382 5.278967413409783 25.267309316881203 0 -3 2
2009 573 5 0.2556 -0.22345036746783298 7.710092186711139 15.180202693741101 1 -1 2
1541 439 2 0.24746 3.140535480204626 0.6635997008291982 13.733216031932756 0 0 1
320 90 3 -0.67874 3.7232533746527974 2.4658732884663928 25.651480604066023 -2 -1 1
138 38 2 0.24746 -0.28017591909595546 6.828717219856432 22.964723737093966 0 0 0
2559 729 1 0.43128 5.014152618170542 9.550066703814938 20.23238938288811 1 0 0
1743 497 5 0.2556 8.580461902138623 9.161067629725936 31.696354904160685 1 0 -2
1127 320 1 0.43128 6.0178660678872 1.9426508823416637 31.310574569981366 2 0 -2
2017 575 5 0.2556 8.026219729017948 0.3799420035815222 26.565620752251597 1 -1 0
1977 563 6 0 2.077459877883896 2.3407291235571344 33.17833434485147 0 1 2
699 199 5 0.2556 0.04920464403533886 5.018450561836726 31.68911306701505 0 2 0
607 172 6 0 4.830825337305763 8.51520711861514 26.39730832684941 -1 -1 0
2491 708 6 0 1.1899192436165027 1.5053796065817235 29.576416152707885 1 0 0
2183 621 2 0.24746 5.911441244238059 5.34308242547174 33.882766600997286 3 1 -1
2184 621 3 -0.67874 5.576569195779104 6.434742963881738 33.02803315608527 3 1 -1
100 27 7 -0.69711 3.8795074803990834 8.267115578823827 33.967216132809234 1 0 1
701 199 4 0.44151 0.41320179323480954 5.952415621215229 29.74180112978983 0 2 0
1974 563 5 0.2556 2.81576741916478 3.780189180967893 34.32572539332812 0 1 2
1775 506 1 0.43128 6.102252064618928 2.4462219747536524 38.21368456483077 0 -1 -1
452 128 2 0.24746 0.19145924984389306 8.043492691135802 33.714554781516284 -2 -1 -2
1345 384 2 0.24746 4.042446001214156 5.093278361728371 29.571727288222263 1 1 -2
1801 513 6 0 7.567515512769239 6.136977105548748 29.086773390346362 2 0 1
71 19 4 0.44151 2.6125259583266276 4.481225237730294 27.627249685605072 -1 2 -3
659 187 3 -0.67874 8.304223552919213 7.119490380691027 37.553809277897365 -1 1 0
319 90 2 0.24746 4.995369328347163 3.0861720149335867 25.82206536179138 -2 -1 1
321 90 1 0.43128 3.0717976243710092 2.9692197513698084 26.14329795425959 -2 -1 1
1744 497 7 -0.69711 8.127802524158785 7.535711299417814 32.0087501514334 1 0 -2
2185 621 1 0.43128 6.387467380148857 6.787028749443475 32.65665540892007 3 1 -1
70 19 7 -0.69711 2.122588417702532 4.07014991795917 26.90825426112308 -1 2 -3
453 128 3 -0.67874 1.2869117984584222 7.976867264857313 32.80260644944707 -2 -1 -2
707 201 3 -0.67874 5.642408709648934 0.8597067534716867 30.053429290503203 1 0 -1
1347 384 1 0.43128 2.590894054533731 6.369516998352631 29.292413156883566 1 1 -2
1125 320 2 0.24746 7.753337642288882 2.794608243031478 31.598808672061306 2 0 -2
1798 513 5 0.2556 8.952682364269572 4.717335495776044 29.054977250021306 2 0 1
2246 639 1 0.43128 2.417837868244021 4.679144104147994 38.057847483454985 1 1 0
748 213 5 0.2556 1.3628364329814173 9.08230989339183 29.74737239329855 1 1 -2
929 266 2 0.24746 5.198018557335746 8.553544644629968 30.507292625155976 1 0 0
1756 501 2 0.24746 2.414293108931862 1.0956374150884967 36.921185089974955 1 2 0
1745 497 4 0.44151 8.6670511918842 6.989131325831232 31.426837880924616 1 0 -2
1126 320 3 -0.67874 6.373846211182464 2.6053431575687354 31.906655349261502 2 0 -2
658 187 2 0.24746 7.058377130599996 6.536019241390965 37.92686615160878 -1 1 0
99 27 5 0.2556 4.597251378102246 8.44295187361574 35.51638962374361 1 0 1
2488 708 5 0.2556 1.5276295932330815 0.5961817260614446 27.845878920398572 1 0 0
708 201 1 0.43128 6.226471596314276 0.6561830195090902 29.323245747028505 1 0 -1
660 187 1 0.43128 9.006752744230614 6.516502666687369 37.79725437265001 -1 1 0
751 213 6 0 1.339026600035038 8.561003432081316 27.833193720135885 1 1 -2
1346 384 3 -0.67874 3.0583503980496594 5.726856284440289 28.75799462414339 1 1 -2
394 111 7 -0.69711 7.786002619146881 2.8018201687150985 37.25724743044622 -1 1 -1
2020 575 6 0 8.818443217774501 1.5535305540109676 27.955764949336338 1 -1 0
395 111 4 0.44151 8.669006004851736 3.0484079160701447 37.55114371931624 -1 1 -1
749 213 7 -0.69711 1.653109317557547 7.457516631094275 30.217491252427813 1 1 -2
750 213 4 0.44151 1.7069430313372753 7.461587407101267 31.178568082497613 1 1 -2
1975 563 7 -0.69711 1.3128143365713727 3.9457330763512095 35.13769213754951 0 1 2
101 27 4 0.44151 4.404345968966982 7.608069758905732 33.502128474065096 1 0 1
454 128 1 0.43128 2.079258481533117 8.266780856827904 33.26031600132048 -2 -1 -2
396 111 6 0 6.03314370342984 1.6836089928224842 35.61960531936828 -1 1 -1
393 111 5 0.2556 7.993107104539041 1.941216420860656 35.786809177810106 -1 1 -1
1976 563 4 0.44151 1.4347338062968114 4.637290890711445 35.788351145899114 0 1 2
69 19 5 0.2556 0.6221533069195835 4.897326478742486 26.81237850255397 -1 2 -3
2245 639 3 -0.67874 2.2593696715462572 5.461399972034743 37.52807423459309 1 1 0
700 199 7 -0.69711 -0.09664633237080156 5.172553494941335 29.985762579422058 0 2 0
2244 639 2 0.24746 2.576087339211506 6.608314792891852 38.31341531565591 1 1 0
1757 501 3 -0.67874 1.4880282756516592 0.10969963310903291 36.47071996710601 1 2 0
706 201 2 0.24746 4.460659618712047 0.07477878050754133 29.917564388768426 1 0 -1
1758 501 1 0.43128 1.689873352759204 -0.1020883614104774 35.56245641959752 1 2 0
194 55 2 0.24746 8.268654741011249 11.343295967353756 10.37970638745337 0 1 0
2256 642 1 0.43128 4.315781700852363 12.952574104800641 0.8996170786891512 0 -1 0
1200 342 4 0.44151 7.7847070673968535 13.83774169837553 9.135122255577906 1 -1 2
1784 509 7 -0.69711 -0.0852265049483546 12.797880251689364 6.718926930525404 2 2 0
1936 552 6 0 5.242162663546901 16.355149780711795 10.768327850494929 0 0 0
2109 599 6 0 8.272198631929736 13.631270321361969 3.7873895456462754 0 1 2
350 98 1 0.43128 6.858265080854477 12.772040181282714 0.2406092802213508 0 1 1
1326 378 6 0 0.39389713847097907 17.701869968431883 4.528801194889271 1 0 0
1844 526 6 0 8.803584888074422 16.05006957398018 11.869866514567256 0 0 0
1995 569 5 0.2556 3.3930698405106643 12.849346865484817 9.197144862667468 1 0 1
513 144 1 0.43128 6.715724272462783 15.305630256805626 2.1593810489987275 1 0 0
1942 554 7 -0.69711 8.802705394252493 13.17011317787966 0.19936650273913015 -1 0 1
1827 521 6 0 3.3966395233700677 14.172307988064155 4.011090663838194 -1 0 0
548 156 2 0.24746 3.7834208215472476 18.043006094113597 3.574580610380953 0 0 -2
511 144 2 0.24746 5.292334893390978 15.817929456667393 0.9238134024194018 1 0 0
1785 509 4 0.44151 0.8409665160852475 12.928492897118758 6.9452374454645796 2 2 0
1201 342 6 0 6.884111058781358 15.985759398580615 6.472844207363942 1 -1 2
1826 521 4 0.44151 4.936708573690493 11.843131044982618 6.177538260553854 -1 0 0
512 144 3 -0.67874 5.802154595796915 15.584985117864745 2.234330459598313 1 0 0
2356 671 6 0 6.6291892105624575 9.614165990249099 4.797879182601225 1 -1 1
1997 569 4 0.44151 3.044950744317114 12.309191103349335 7.103678617157654 1 0 1
1998 569 6 0 1.8054331231690015 13.475707861474826 10.208915414356609 1 0 1
840 239 1 0.43128 1.8240804055632371 17.516810558357232 9.47371929855427 -1 1 -3
1292 368 6 0 5.069078899390287 10.647386717646969 12.340453112998176 0 1 0
549 156 3 -0.67874 5.126188150566164 17.68889997909515 3.8923007662791496 0 0 -2
1996 569 7 -0.69711 2.444767225921998 12.632801818356551 7.783406193150354 1 0 1
2094 596 5 0.2556 -0.4585191024812427 10.864213842756996 9.514248923478076 0 0 0
195 55 3 -0.67874 7.493143243062381 12.540290338030188 10.354196559977575 0 1 0
1086 308 4 0.44151 9.158485208550871 18.560090794857476 1.6916414827527215 2 0 -1
2354 671 7 -0.69711 6.380941773384988 10.978032063361761 7.051773470536233 1 -1 1
1933 552 5 0.2556 5.882968520785836 18.068255846568565 9.999144676336488 0 0 0
1825 521 7 -0.69711 4.278832216848075 12.406355667251901 5.769715312140698 -1 0 0
1824 521 5 0.2556 5.069294068762105 13.214732798403315 4.479049381471705 -1 0 0
1934 552 7 -0.69711 6.355773639462405 18.621452157006896 11.55252579850145 0 0 0
196 55 1 0.43128 7.631356533180272 13.007984478983401 11.177954041580026 0 1 0
2355 671 4 0.44151 6.643159867498004 11.25645422727357 7.9353465506242085 1 -1 1
2469 703 5 0.2556 9.383242100500485 18.756851436398847 8.237994972881138 0 1 1
2325 662 1 0.43128 1.9947556563008466 18.461339368493782 7.107214405439584 -1 -3 -1
2353 671 5 0.2556 7.570094637484379 9.8551284689786 6.527958366303846 1 -1 1
349 98 3 -0.67874 5.9568556184411605 12.64679488236075 -0.059667016484799086 0 1 1
1943 554 4 0.44151 8.80354987113222 13.94563856386493 0.7705214848056817 -1 0 1
839 239 3 -0.67874 1.1922535527046572 17.437586440596235 10.18319001070735 -1 1 -3
1198 342 5 0.2556 6.244012445524541 14.699502851804217 7.840503298976836 1 -1 2
2107 599 7 -0.69711 8.459440558537832 15.77171347890118 2.2432126398166616 0 1 2
2324 662 3 -0.67874 2.267939821760122 17.88630454720833 7.8200307768201505 -1 -3 -1
2254 642 2 0.24746 3.2453796582409487 11.386891003349307 1.3633356948502762 0 -1 0
2290 652 3 -0.67874 2.4266630522814077 18.93594365151349 0.45767072556231314 1 -1 0
838 239 2 0.24746 1.7889813521740914 17.9342019693222 11.377919467950296 -1 1 -3
550 156 1 0.43128 5.284243299364479 16.796192329068337 3.5897548434932003 0 0 -2
2323 662 2 0.24746 2.599481991533458 16.613658600230416 7.2699183108583005 -1 -3 -1
1199 342 7 -0.69711 7.844575330503776 14.469698565048061 8.414261243708388 1 -1 2
832 237 3 -0.67874 1.1442924998611623 14.07209341944645 0.20747786665378715 -1 -1 0
2145 610 1 0.43128 6.026178775177251 18.79619910371009 5.206855152260777 2 2 0
2108 599 4 0.44151 8.899688166621688 16.549510128072587 1.8782917608376302 0 1 2
2255 642 3 -0.67874 3.4156691458790944 12.79038723932931 1.183673478315061 0 -1 0
1842 526 7 -0.69711 7.551271025956519 13.879570773153795 12.717144923962337 0 0 0
831 237 2 0.24746 0.1805369164821885 13.878145908009586 1.2396701021252363 -1 -1 0
1085 308 7 -0.69711 9.05720551222631 18.062928463913565 0.873819644321923 2 0 -1
833 237 1 0.43128 1.8248563295532736 13.406702682614148 0.2999025993362373 -1 -1 0
346 97 4 0.44151 9.123779299948291 15.09933520693059 7.352135469768606 -1 0 1
2291 652 1 0.43128 2.282609882039134 18.065566179313887 0.09665604807585712 1 -1 0
2062 587 6 0 -0.415626440477356 9.634817511630052 3.6304403767592355 0 0 -1
1323 378 5 0.2556 -0.14845017062857957 19.342726030855648 5.503348962560587 1 0 0
819 233 1 0.43128 -0.31183034184267167 16.348402953268444 10.792884584606156 1 0 -1
2210 629 3 -0.67874 5.680545132004242 15.049493480362525 21.679701368532474 1 1 -1
404 114 5 0.2556 0.5849219684548617 16.828040465417835 19.40360838792246 0 1 1
506 142 6 0 0.41730005727939334 10.951797281533139 18.140450099174803 -1 1 0
2040 581 5 0.2556 9.308302333386747 10.369541691853234 19.908397100585674 0 -1 -2
1641 468 2 0.24746 5.485257363704898 12.272452706560724 23.632616604762667 0 -1 1
374 105 6 0 4.748087495329417 10.665794085232518 17.860361434039117 0 0 0
371 105 5 0.2556 4.856973410213868 11.999840660298405 19.32505013561371 0 0 0
615 175 5 0.2556 5.359376461258003 18.031830412196175 23.864019739093255 0 -1 1
406 114 4 0.44151 0.6036770352353011 16.39150323550324 17.2577880479345 0 1 1
2305 657 2 0.24746 0.3642244011824015 12.04760533556533 13.073561218456549 0 -3 0
546 155 3 -0.67874 -0.19976594395065794 18.827977300539715 23.026509469009884 1 2 1
1070 304 3 -0.67874 4.990732735153267 18.434750460050147 13.771073321683783 -1 1 2
1618 461 3 -0.67874 8.845851091423324 18.002249262437346 14.700441394299856 0 1 -1
1643 468 1 0.43128 5.72409510104427 13.381338428903438 22.042650555305308 0 -1 1
2041 581 7 -0.69711 8.565934144088661 9.84582739846446 18.45078010560838 0 -1 -2
405 114 7 -0.69711 1.1543816976411814 16.066475735342376 17.97460128888577 0 1 1
373 105 4 0.44151 6.437278034870715 11.667981874064232 20.801838628569147 0 0 0
855 244 3 -0.67874 0.4693691431454159 16.39448133927792 24.439440515613768 0 -1 -1
1657 473 5 0.2556 7.903606643199884 18.511753541737438 18.889762348370255 0 -1 2
2211 629 1 0.43128 5.6394445473665415 15.888428106084032 22.14246486461466 1 1 -1
372 105 7 -0.69711 6.188760669588869 11.171353766646888 20.01843705103675 0 0 0
136 37 4 0.44151 2.804203562816842 15.599491646817116 17.223781460652912 -1 -2 1
1841 526 5 0.2556 8.044387490858234 15.301365780615422 13.542986069429341 0 0 0
1069 304 2 0.24746 5.418794144449627 17.48559161515127 14.74586150935641 -1 1 2
2517 715 1 0.43128 -0.11296741586334985 17.029797614120096 15.099212789390007 2 -2 -1
503 142 5 0.2556 -0.014011248330113468 12.88767891060206 18.10827391385817 -1 1 0
135 37 7 -0.69711 3.6826081719298562 15.295563100124543 16.977062811662133 -1 -2 1
1010 288 7 -0.69711 0.2737165305283812 13.334645238432945 23.590463694545136 1 1 0
397 112 5 0.2556 4.349031547549685 18.157866058931823 18.772872125341568 1 0 1
134 37 5 0.2556 3.4929463971500816 14.407556096248735 15.52211839033889 -1 -2 1
618 175 6 0 3.6497090576610756 17.047479273839766 23.653804506581352 0 -1 1
399 112 4 0.44151 3.9615334998613134 18.802855824801377 20.827048769171626 1 0 1
504 142 7 -0.69711 1.5948061646963958 13.284278776842118 18.558762671167187 -1 1 0
505 142 4 0.44151 1.6304222966373882 14.244853311371596 18.61033004296024 -1 1 0
1658 473 7 -0.69711 8.942067701139429 18.73342361050467 20.238955455631096 0 -1 2
616 175 7 -0.69711 5.43173972350246 18.32583495650328 22.173602112840054 0 -1 1
398 112 7 -0.69711 3.7370725717594278 19.2067618886029 19.98663953560991 1 0 1
1642 468 3 -0.67874 5.9827041474274685 12.500389440988453 22.31646289480977 0 -1 1
2209 629 2 0.24746 6.237416965637805 15.274655625002604 20.38517213471137 1 1 -1
445 126 2 0.24746 9.185713876672006 15.126061442490867 23.842953255389332 0 0 0
407 114 6 0 1.9523860176799217 15.885671508957369 20.48906408878556 0 1 1
61 17 5 0.2556 7.644641309104308 13.188736141057129 18.180461309776465 -1 -1 0
137 37 6 0 5.441315071911218 14.037705580701099 15.455652591861242 -1 -2 1
446 126 3 -0.67874 8.49611948932275 16.32527586237004 24.183898078155433 0 0 0
62 17 7 -0.69711 7.526228719424537 14.81446637512367 17.64402978346231 -1 -1 0
1071 304 1 0.43128 5.649367675743097 18.472365659076758 13.074856583639638 -1 1 2
2194 624 3 -0.67874 8.744460760414281 10.776449229394974 15.948226106311463 2 -1 0
2516 715 3 -0.67874 -0.27078258499873925 16.31164113533552 15.710150154303816 2 -2 -1
856 244 1 0.43128 0.2769813808388082 17.24233167702788 24.03677741819662 0 -1 -1
63 17 4 0.44151 6.628954461426021 14.923610928140246 17.309666511840337 -1 -1 0
2042 581 4 0.44151 7.614538857268057 9.866601679868074 18.610548546685752 0 -1 -2
1289 368 5 0.2556 6.576795739542053 9.814280795280363 13.323349404840519 0 1 0
617 175 4 0.44151 6.241347128139785 18.829400142820322 22.021552066077994 0 -1 1
1290 368 7 -0.69711 6.998703820816815 11.32509481833078 14.020786885958737 0 1 0
2195 624 1 0.43128 8.613899154319302 10.427512504029336 16.828357996855242 2 -1 0
1011 288 4 0.44151 0.7636857916731055 14.130514371968964 23.803509869767563 1 1 0
509 143 4 0.44151 9.094873218858247 15.824968444305096 16.92313267243228 0 0 0
783 223 4 0.44151 8.396667742572626 19.258675477328097 22.005638115463906 -1 -1 -1
447 126 1 0.43128 8.93968246159644 16.728552104119284 24.924104894636155 0 0 0
1291 368 4 0.44151 7.761554012817147 11.157448609739856 14.579991272447911 0 1 0
1843 526 4 0.44151 7.124842972992049 13.3207740829635 13.37536526808385 0 0 0
1619 461 1 0.43128 9.318296455253945 17.463166274284543 15.335794305920903 0 1 -1
1315 375 1 0.43128 -0.44681546242012965 12.647302518672678 24.98778562651682 3 0 -2
547 155 1 0.43128 -0.41656537581622105 19.19897372304898 23.880008102566656 1 2 1
1617 461 2 0.24746 9.406170759745349 19.31261197737004 14.714224342775822 0 1 -1
400 112 6 0 3.6728145994293966 19.35668424910649 17.344318197943778 1 0 1
2332 664 6 0 7.770753601486081 17.279980506393095 28.59963929822274 1 -1 0
2520 716 1 0.43128 4.16619927139402 12.05717206425287 32.12117786387387 0 1 1
348 98 2 0.24746 5.95792841804117 12.604074841350343 37.133849279904865 0 1 0
2477 705 2 0.24746 5.863355780960253 14.257926796380254 27.957334961894357 1 1 -1
994 283 6 0 6.378873379076474 18.77792114148825 33.68612050424566 1 0 0
2329 664 5 0.2556 7.318743290961915 18.32660226756759 30.22266743256374 1 -1 0
738 210 3 -0.67874 2.08473047420871 16.459247371025572 38.059388486695376 0 1 -1
102 27 6 0 3.245695024321863 9.801677995498778 36.02739837063521 1 0 1
854 244 2 0.24746 0.26951412666158636 16.507833445694175 25.84579949642831 0 -1 -1
1613 460 5 0.2556 3.2770641172102164 18.733269662424192 28.4226257010408 -1 0 1
2331 664 4 0.44151 8.767337056406848 18.2227161779344 31.859634629322876 1 -1 0
684 195 5 0.2556 0.22815519430347042 13.228680788856101 29.32120910630711 -1 1 0
992 283 7 -0.69711 9.02029343908826 18.753284075526132 33.583028110672785 1 0 0
2478 705 3 -0.67874 4.8641839661352275 13.769804523527409 28.849519451040898 1 1 -1
687 195 6 0 1.0918562437250314 15.006929226883221 29.15845490737928 -1 1 0
1746 497 6 0 7.280697393395046 9.817132267537799 33.043540896724856 1 0 -2
1313 375 2 0.24746 -0.5278992688454307 10.979053091664738 25.996976037784282 3 0 -2
1159 330 1 0.43128 0.7655695223674746 14.702315588146151 31.943076323774825 1 1 0
1569 446 6 0 3.0108118816818727 13.657248395468855 25.855937689118615 0 0 -1
1390 397 7 -0.69711 4.716729135849277 13.782952540853842 31.553563459935653 1 0 0
2479 705 1 0.43128 4.200602102307478 13.306395295945636 28.337318753532763 1 1 -1
1389 397 5 0.2556 6.2978979741442105 14.161605651886395 32.103794887782456 1 0 0
1614 460 7 -0.69711 4.889334931944689 19.03395993430833 27.916562219424634 -1 0 1
1391 397 4 0.44151 4.782848444071392 13.67351816609273 30.59534399036753 1 0 0
2330 664 7 -0.69711 8.763568722263246 17.812032639439956 30.991459295061425 1 -1 0
1486 424 5 0.2556 1.1961339602570757 18.66818855986985 32.62676805078172 1 0 -2
1158 330 3 -0.67874 0.7854853622418143 15.27244082392335 32.71242365420892 1 1 0
2519 716 3 -0.67874 3.793446561508075 11.18482173892321 32.243489921561654 0 1 1
1488 424 4 0.44151 0.37985679518008497 16.981648158013773 33.7581953129055 1 0 -2
685 195 7 -0.69711 -0.3032082772783802 13.59808057626311 30.911959188978752 -1 1 0
1392 397 6 0 5.654526934744876 14.274789904576815 33.97665611082947 1 0 0
2518 716 2 0.24746 2.3934325113720814 11.320666940973299 32.47659262713915 0 1 1
1566 446 5 0.2556 3.0701323498062654 11.681332659032448 26.015015683092702 0 0 -1
1616 460 6 0 3.8908900352028324 17.284472642628025 29.631720756270198 -1 0 1
1568 446 4 0.44151 3.5662244400146097 10.896164172756027 28.00012163973452 0 0 -1
1567 446 7 -0.69711 3.4777799790162653 11.800989310406928 27.678299863927364 0 0 -1
737 210 2 0.24746 3.012377562703744 16.014616486577506 37.07274657276853 0 1 -1
1157 330 2 0.24746 2.141875723781936 15.43158730474919 33.121110292829236 1 1 0
1487 424 7 -0.69711 0.18137789921205816 17.92105607133656 33.79189901674257 1 0 -2
931 266 1 0.43128 4.437421379783376 10.348332901757992 30.617211559772656 1 0 0
1079 306 6 0 7.277959499757258 11.206066107851791 27.05651009501154 1 1 -1
930 266 3 -0.67874 4.588422730032208 9.703828736739206 29.926269780049928 1 0 0
1076 306 5 0.2556 8.151515888821244 9.671297005643888 27.960546888125485 1 1 -1
110 29 6 0 9.338355135706646 13.34879472401706 34.533838063790206 0 -1 0
739 210 1 0.43128 1.636888052642766 15.697387871988424 38.4178197887573 0 1 -1
2342 667 3 -0.67874 7.269383979253578 24.15097728216017 10.463642327384637 0 0 -1
155 43 3 -0.67874 3.700200732854322 24.939679567764944 7.09896897976465 -1 -1 2
2470 703 7 -0.69711 7.989139890587442 19.757371757822288 8.280264066930489 0 1 1
756 215 7 -0.69711 2.732612414973772 26.59722227063902 9.610129247185519 1 0 1
2340 666 6 0 8.012016693490871 26.976039958050624 7.455956386360284 1 -1 2
388 109 6 0 2.800287139839885 22.65665792543295 3.4921369402518767 -2 -1 -1
1962 560 5 0.2556 -0.0949461537697186 24.14508483867772 7.162662787605022 0 0 0
633 180 2 0.24746 7.923588511494897 23.279377980231647 3.635027776684089 -1 -1 2
847 242 5 0.2556 5.538135522097067 28.462995076940217 5.59324090863991 1 -1 2
156 43 1 0.43128 3.5991827934195335 25.074305189775565 6.161864467889628 -1 -1 2
1929 550 1 0.43128 4.375176194494294 26.20591027349014 10.851969225840802 0 0 -1
635 180 1 0.43128 8.69606784444102 25.04826075395402 3.930235007877992 -1 -1 2
1395 398 4 0.44151 8.526813719957554 27.480422351961632 4.419094622544755 0 1 1
386 109 7 -0.69711 3.647354616464905 25.08295951480944 4.116349354620674 -2 -1 -1
387 109 4 0.44151 4.247965649398389 25.837797690383855 4.071606355159636 -2 -1 -1
758 215 6 0 1.0102559631561834 27.427463756018348 11.438127158708083 1 0 1
2343 667 1 0.43128 6.620807886318175 24.673972352353175 10.930970092794174 0 0 -1
154 43 2 0.24746 5.087709253750641 24.79049650938487 7.387338199148247 -1 -1 2
1396 398 6 0 7.292881084860081 26.38145745411082 1.2904945049336112 0 1 1
1563 445 2 0.24746 0.5433028208058956 26.424091256197713 3.214877232659001 -1 0 -1
757 215 4 0.44151 3.0006297321093003 26.116353028720294 8.820290871717523 1 0 1
634 180 3 -0.67874 9.02656839466948 24.17930361088959 3.699379218391991 -1 -1 2
1393 398 5 0.2556 7.838654954327428 27.937526826114976 2.392479176296646 0 1 1
1928 550 3 -0.67874 5.170449168944819 25.90015268297191 11.28470754013785 0 0 -1
2338 666 7 -0.69711 9.098974861327207 28.70018467586716 5.768473793290829 1 -1 2
1700 485 3 -0.67874 1.4275165458478671 21.37504528979637 9.100050464886586 1 1 1
2143 610 2 0.24746 5.7751432460042995 20.64738340720276 5.779860683101786 2 2 0
1935 552 4 0.44151 6.724022451373552 19.500107680009283 11.425337387903884 0 0 0
850 242 6 0 3.629087028710229 28.147346436956635 6.03047212630005 1 -1 2
2416 688 1 0.43128 8.882837441366267 21.336172137863958 7.881780698889543 -1 1 1
49 14 5 0.2556 7.956070993688483 21.537644502959708 0.5271517453638951 -1 -1 0
2414 688 2 0.24746 8.620973827079135 23.198543666935457 7.355328327296439 -1 1 1
755 215 5 0.2556 1.0531555191718285 26.30178517906404 9.805212086534546 1 0 1
1927 550 2 0.24746 6.023415042782797 27.02079922236157 11.503137644627152 0 0 -1