LAMMPS data file via write_data, version 29 Aug 2024, timestep = 1000000, units = real

2418 atoms
7 atom types
1689 bonds
5 bond types
960 angles
3 angle types
693 dihedrals
3 dihedral types

0.02317990184498342 38.917940098143255 xlo xhi
0.3541228324335215 38.38298716755043 ylo yhi
0.4501315309960354 37.9880884689754 zlo zhi

Masses

1 1.008
2 15.011
3 15.999
4 1.008
5 14.011
6 15.011
7 15.999

Pair Coeffs # lj/cut/coul/long

1 0 0.4
2 0.239639 3.7543
3 0.174632 3.03
4 0 0.4
5 0.171477 3.4612
6 0.238761 3.6072
7 0.169017 3.1496

Bond Coeffs # harmonic

1 1000 1.4246
2 1000 0.9451
3 1000 1.9842
4 1000 1.71581
5 1000 0.95053

Angle Coeffs # harmonic

1 1000 108.53
2 1000 106.368
3 1000 90.95

Dihedral Coeffs # quadratic

1 1000 180 
2 1000 180 
3 1000 180 

Atoms # full

1339 383 4 0.44151 2.5144842662007907 5.652328175896863 9.636288857399693 0 1 1
423 120 7 -0.69711 2.179097315787981 2.4873956582037993 11.017484308561457 1 1 0
107 30 1 0.43128 5.315058920538076 3.8137111990575776 3.0098724730393096 -2 -2 -2
1689 486 1 0.43128 7.472047614096585 6.489820313328099 9.565075706094781 0 0 -1
105 30 2 0.24746 6.737866270453566 3.6166664292137156 4.331861207337893 -2 -2 -2
1721 497 3 -0.67874 7.531478002114978 4.806548194769247 10.625527019175125 1 -2 0
2225 665 3 -0.67874 0.8862199419290703 2.7202982316357183 3.7916436008447767 2 -2 1
1604 458 3 -0.67874 6.529182202932944 8.563492315810688 4.38184602678764 0 0 2
1365 390 4 0.44151 2.979903417150377 2.9298756357591045 1.3903186510893164 0 3 -1
1720 497 2 0.24746 6.857223078508134 4.129377402509185 9.56700353436236 1 -2 0
235 66 7 -0.69711 1.7704427281535562 2.971707013250894 8.395755310814888 -1 2 1
1657 476 2 0.24746 8.827897011946959 4.963755332021583 0.9798812795779377 2 0 1
1008 286 4 0.44151 2.9127610524141536 3.5149089995136817 3.593738163144494 -1 1 0
106 30 3 -0.67874 6.266359669539656 3.907865131360176 3.017683819692364 -2 -2 -2
2124 631 1 0.43128 3.402929257026211 3.7302904577639735 10.745351007577945 1 -1 1
1688 486 3 -0.67874 7.451299546515794 7.3585214191207715 9.16543792284251 0 0 -1
1396 399 2 0.24746 8.785890433211284 0.7286174978665529 3.3078171512088494 0 1 0
1338 383 7 -0.69711 2.1854401110094304 5.8671450312275155 8.760449998504802 0 1 1
236 66 4 0.44151 1.8901331267563035 3.909565791491354 8.216792493189747 -1 2 1
903 256 4 0.44151 0.6270184280921404 0.6829932648313921 1.1945335790421343 1 1 0
1024 290 6 0 2.2980996388799424 8.737511920482033 11.38539173992756 2 -1 -1
1658 476 3 -0.67874 7.692250223207874 4.111289587205075 0.8569180151092948 2 0 1
1337 383 5 0.2556 2.935244862897404 7.346119751517961 8.314212622266151 0 1 1
1021 290 5 0.2556 0.6008820264688022 8.001833697828774 12.101725538941837 2 -1 -1
1340 383 6 0 1.9890642654009 7.3391059113755786 6.570415134104085 0 1 1
1364 390 7 -0.69711 3.25726977194723 2.2051276525028323 0.821451181379472 0 3 -1
1007 286 7 -0.69711 3.511340448037963 4.072837204272448 3.0902519635413888 -1 1 0
424 120 4 0.44151 1.9263060425297072 2.562294385523612 10.090882184907077 1 1 0
1659 476 1 0.43128 7.220275307069061 4.1122649597998695 1.6907211599588752 2 0 1
2123 631 3 -0.67874 3.7748571181890718 4.5941637847675185 10.568970024514421 1 -1 1
1605 458 1 0.43128 6.993490868023878 9.398525598727447 4.405373873752197 0 0 2
475 134 1 0.43128 7.657877377828174 5.6346572046989944 12.380435305515347 -1 -3 2
1603 458 2 0.24746 7.3414936036443565 7.6139505656510496 3.6981064540448365 0 0 2
737 208 2 0.24746 5.481882196597521 9.012349501310883 11.59500837298262 -1 -1 1
1009 286 6 0 4.254007210839455 6.301340548976233 1.8738361379959723 -1 1 0
1687 486 2 0.24746 7.380731653820701 7.201912717895591 7.7504783940888675 0 0 -1
1006 286 5 0.2556 2.713541051008428 5.579417243708836 2.894401494423128 -1 1 0
1397 399 3 -0.67874 9.739092130448299 1.2215115901644023 2.3700279645243625 0 1 0
2226 665 1 0.43128 0.367208420457175 2.025250835235876 3.3831958416417205 2 -2 1
237 66 6 0 0.5256406639093122 0.6412581830516044 8.224848095923452 -1 2 1
1722 497 1 0.43128 8.163101230431336 4.20334462932881 11.017062569025365 1 -2 0
543 154 3 -0.67874 9.349241557474084 2.881902136123519 11.724582829518425 -3 0 0
2110 627 2 0.24746 3.753320651515531 0.7403666617219613 6.110830099045473 1 2 1
2122 631 2 0.24746 3.934546611730493 5.2788059680797454 11.809687640119787 1 -1 1
902 256 7 -0.69711 0.12165338346910903 0.7184437394663912 2.009651617945213 1 1 0
422 120 5 0.2556 2.4248675048763895 0.8155577982364068 11.316103166023934 1 1 0
542 154 2 0.24746 9.490969601898888 1.4767794243926387 11.529375966153635 -3 0 0
1363 390 5 0.2556 4.913893404088996 1.924855034062979 1.1744540900246647 0 3 -1
149 42 1 0.43128 5.208617547362176 9.32014599776916 5.614116411071747 0 1 0
738 208 3 -0.67874 6.120310865032387 9.699131055217109 12.670381618745928 -1 -1 1
234 66 5 0.2556 0.32974557643871655 2.509600616965997 7.58561181325366 -1 2 1
1398 399 1 0.43128 9.356143683548646 1.1729069218932902 1.4954319335518633 0 1 0
148 42 3 -0.67874 4.636859127981224 9.799833815430668 6.21377843452187 0 1 0
966 274 3 -0.67874 0.12237322610553426 9.247986396512667 0.7176404730462176 1 0 0
1328 380 2 0.24746 0.04117709013002347 8.477493717853172 17.172936340882707 1 0 -2
1022 290 7 -0.69711 1.3796345759556172 7.545143273616744 13.56177389017716 2 -1 -1
1355 388 5 0.2556 8.29321511989628 7.473550074406038 23.280093145058693 1 1 1
2223 664 1 0.43128 1.886125650754406 8.334960959593296 18.884105795156472 -2 -1 0
480 136 2 0.24746 0.19315592806382612 4.753906307914177 14.942686259060547 0 2 -1
1481 422 4 0.44151 3.0072206412025015 4.003223432531672 18.752065100089574 1 0 0
1409 402 4 0.44151 6.13348808117639 8.174802241925118 25.120639670016836 -1 1 1
1443 412 5 0.2556 4.6561139877306505 5.502720064811488 20.74777950490441 1 0 0
670 190 5 0.2556 3.3799095314849064 6.828916695000292 16.440333706576954 1 1 1
2222 664 3 -0.67874 2.385832655736304 7.944813233521579 19.60342756729018 -2 -1 0
1452 414 3 -0.67874 6.525495472908553 8.797381044193074 20.526873010531798 1 1 1
425 120 6 0 2.8892605844271926 1.1891112252624936 13.208509276864906 1 1 0
1479 422 5 0.2556 3.1738081155762745 2.874322173768288 16.883232054771284 1 0 0
1491 425 1 0.43128 8.330583450511746 7.761831928612811 13.616003379048994 3 -1 0
2130 633 1 0.43128 2.666774500531374 1.766962887728718 19.58643548430193 0 4 -1
1922 564 3 -0.67874 1.263611233026551 3.325513155843224 22.143358697499725 1 -1 0
1164 332 3 -0.67874 2.037564625973922 5.401286368602006 18.9736042538934 1 1 0
1923 564 1 0.43128 1.4310045499274715 2.707215139454998 21.43077237587818 1 -1 0
958 272 7 -0.69711 5.869845116549835 6.349578320456427 24.69422618768517 2 1 -1
673 190 6 0 5.107774937966061 6.67001085515564 17.400599790933043 1 1 1
1490 425 3 -0.67874 8.210260963017017 8.676194903406556 13.873149191860072 3 -1 0
1482 422 6 0 4.25111805718656 1.210823822173007 16.96696984518304 1 0 0
981 278 6 0 1.555643838038683 8.37112940509813 23.71600004855391 1 0 -1
368 104 2 0.24746 7.721725617683987 2.0539038298109835 23.937559926140047 -1 -2 -2
959 272 4 0.44151 5.82659048086678 6.105522440963769 23.764915168136024 2 1 -1
978 278 5 0.2556 2.1883682972854963 6.603277216378632 23.078881704711712 1 0 -1
695 196 1 0.43128 7.304912533991004 3.3203911111921567 21.44790425451789 1 1 1
671 190 7 -0.69711 4.196117064520575 7.154343855846691 14.965215209883294 1 1 1
369 104 3 -0.67874 7.795771200822157 1.8851819209906353 22.52557677027432 -1 -2 -2
1451 414 2 0.24746 7.753410791796768 9.324810814402351 20.033069183824086 1 1 1
672 190 4 0.44151 3.509153408229577 7.276662003128648 14.299877148647086 1 1 1
1480 422 7 -0.69711 3.4660797961390024 3.183156006428914 18.546381231338774 1 0 0
1921 564 2 0.24746 0.9291034188044347 2.5843866897954513 23.314276992460353 1 -1 0
979 278 7 -0.69711 0.5877669979417032 5.983217311064733 23.115420119868 1 0 -1
1165 332 1 0.43128 2.142412565596732 6.287801210838905 19.324690107400052 1 1 0
694 196 3 -0.67874 7.402088528736076 4.008704829477052 20.793791418520083 1 1 1
2129 633 3 -0.67874 1.8522839091107517 1.4547551471628604 19.980562491058535 0 4 -1
1444 412 7 -0.69711 5.6493092452459654 6.508518542431001 21.721097405140927 1 0 0
473 134 2 0.24746 6.892158575434278 5.408240449471929 14.163269985520202 -1 -3 2
1408 402 7 -0.69711 6.170550189721836 9.127455541062176 24.98801176275235 -1 1 1
1446 412 6 0 4.484499109907298 4.187540006624758 22.222592226521993 1 0 0
1445 412 4 0.44151 5.876492572341916 7.269840589824943 21.17758649407848 1 0 0
1489 425 2 0.24746 8.257055408726531 8.755347903985024 15.295242948006432 3 -1 0
2221 664 2 0.24746 3.1026327558373232 8.981566265054699 20.268762186968264 -2 -1 0
952 270 6 0 8.769537965495475 1.5044492288457545 15.4830635376256 0 1 0
1023 290 4 0.44151 0.7034582203597838 7.135538786628319 14.108928534041853 2 -1 -1
1453 414 1 0.43128 6.336967179606488 9.206281900907918 21.369435573530648 1 1 1
693 196 2 0.24746 7.520948522040067 3.399433965430293 19.51069156608132 1 1 1
1329 380 3 -0.67874 1.0395944911811164 9.317303036962999 17.745458386112517 1 0 -2
370 104 1 0.43128 8.698171582602896 2.0186996823283962 22.25227986063355 -1 -2 -2
2128 633 2 0.24746 1.3563947473467945 0.3739091195047057 19.193554409481486 0 4 -1
1163 332 2 0.24746 0.6447620193986703 5.09669475879409 18.926252826975517 1 1 0
474 134 3 -0.67874 7.711720521901569 6.094454759810417 13.21975322743653 -1 -3 2
1357 388 4 0.44151 8.128251569295813 5.818745386304501 21.85749430010404 1 1 1
980 278 4 0.44151 0.6487406729766994 5.069722013084766 22.824752289788467 1 0 -1
1356 388 7 -0.69711 8.897316224773833 6.248803125253181 22.239904595416363 1 1 1
141 40 2 0.24746 9.579414984060408 5.887796984077852 17.516917997467917 0 1 1
739 208 1 0.43128 6.841108289656316 9.157643645263416 12.990341547476007 -1 -1 1
379 107 4 0.44151 6.950640963234467 1.1867586511361417 31.5212541690684 0 0 0
53 15 4 0.44151 1.0595967053041375 2.7837729597701486 26.910106407239187 1 1 1
1137 324 3 -0.67874 0.05864489063179706 1.5266587499108428 26.325754190422362 0 1 -1
380 107 6 0 5.007610613386951 4.142401246651239 31.684549033860012 0 0 0
867 245 1 0.43128 6.620815523779773 8.126156831129041 31.36193674374822 0 -2 -2
378 107 7 -0.69711 6.247229667000622 1.8050171952471448 31.74116549688348 0 0 0
253 71 2 0.24746 2.9499758067042685 0.9058089872961762 32.35450692401359 1 1 0
1542 440 4 0.44151 5.125023134797217 8.216990084108982 33.54824352901633 0 1 2
52 15 7 -0.69711 1.4088401021205934 3.5717257423962514 27.331388950651654 1 1 1
866 245 3 -0.67874 7.458103781304733 8.022021471619926 30.9094103635949 0 -2 -2
1457 415 6 0 2.9913595783291447 4.330272600950643 35.46797181140096 1 0 -1
2369 713 3 -0.67874 7.684873956547299 2.807691951703926 36.135752174629545 1 1 0
2368 713 2 0.24746 6.504988097298086 3.1064845582891794 35.39369653834349 1 1 0
967 274 1 0.43128 0.6793400861592646 8.815639662398233 37.60738166639955 1 0 -1
377 107 5 0.2556 6.6463096658415575 3.2844480552387147 30.965629621920193 0 0 0
1372 392 1 0.43128 1.2981429372006645 3.847739919844235 29.120321676972093 1 0 0
2228 666 3 -0.67874 6.5700922694140385 2.0958487502301173 27.460855631280502 -1 1 1
865 245 2 0.24746 7.223889331894332 7.343306055797708 29.677605403937722 0 -2 -2
1456 415 4 0.44151 0.7659780969813923 6.530812516989901 33.81071859551163 1 0 -1
54 15 6 0 1.724737555748492 6.178202102636459 27.645407160577236 1 1 1
1692 487 1 0.43128 3.0915548393838352 2.6592740360709928 28.34839995352117 0 0 -1
1454 415 5 0.2556 1.7216077287471225 4.564849342142763 33.9618828423186 1 0 -1
1315 376 2 0.24746 6.3707333480607735 7.9228968498533785 36.664375653290335 3 -1 -2
254 71 3 -0.67874 3.9360125563888584 1.0211362707754559 33.37814869713122 1 1 0
601 170 1 0.43128 8.657486531211342 1.5361090101985009 36.511497744337944 0 -1 1
2088 619 1 0.43128 2.443084699593403 1.0676731941516864 37.351661192165054 2 -1 -1
1317 376 1 0.43128 6.7228876021360415 7.676333227660503 34.75858424853202 3 -1 -2
1316 376 3 -0.67874 6.052484201957402 8.113969445861517 35.28750143109802 3 -1 -2
1808 526 3 -0.67874 1.562195958456966 8.278268627806874 36.26924212404644 0 2 -1
960 272 6 0 5.234184615743024 6.146337333079529 27.25527233883648 2 1 -1
1540 440 5 0.2556 3.459190581857191 7.481354899964583 32.33386966278772 0 1 2
1455 415 7 -0.69711 1.4054494978665892 6.181606445092408 34.44232272816886 1 0 -1
1541 440 7 -0.69711 4.936333080142798 8.309613185627658 32.610869260997774 0 1 2
1809 526 1 0.43128 1.3406072908381448 7.6118106557836605 35.62475969226 0 2 -1
1691 487 3 -0.67874 3.780737236127264 2.032435745595083 28.132071649446058 0 0 -1
1370 392 2 0.24746 0.577405985693087 3.3207110844478747 30.8566883204 1 0 0
51 15 5 0.2556 0.7693177610962337 4.904847618343212 26.461645485138884 1 1 1
1543 440 6 0 3.522254258976193 7.943799948403199 30.405626981394683 0 1 2
2227 666 2 0.24746 7.19136911929379 1.0925941181460859 28.262955819246056 -1 1 1
1366 390 6 0 4.983268576871339 0.4575295568747737 37.37936853111583 0 3 -2
2229 666 1 0.43128 5.625436948782706 2.0805477348703882 27.63306415294661 -1 1 1
255 71 1 0.43128 4.674470721691496 1.5227527878765836 33.032335689907654 1 1 0
1690 487 2 0.24746 3.352035317080256 0.7336713291007546 28.53292984292321 0 0 -1
600 170 3 -0.67874 9.264321474841385 1.0700247225187085 37.084516559437304 0 -1 1
1807 526 2 0.24746 2.919418780249325 8.66507976549986 36.07046251183918 0 2 -1
2086 619 2 0.24746 1.19852377442917 0.7932327712042266 35.87246948941953 2 -1 -1
282 79 1 0.43128 8.18063322932395 7.324099411664967 32.59509405900347 1 1 0
2370 713 1 0.43128 7.571377029343588 3.1312600884351474 37.02738800049144 1 1 0
281 79 3 -0.67874 8.063516205975516 7.252597199433156 33.54273377499317 1 1 0
957 272 5 0.2556 4.805727532270091 5.2851573609191 25.5200402461719 2 1 -1
1371 392 3 -0.67874 1.6019839296837064 3.8654407447741153 30.028141438044347 1 0 0
1407 402 5 0.2556 7.271726815704638 9.731701038826543 26.159038698590866 -1 1 1
280 79 2 0.24746 9.136423962700288 6.476085431829254 34.07156748431538 1 1 0
2087 619 3 -0.67874 1.865627878202476 0.3626397166738428 37.0566102985636 2 -1 -1
1170 334 7 -0.69711 3.0729638354067728 13.818932044236496 4.02649461002029 0 1 1
618 176 2 0.24746 1.2398831307423346 12.114343509576058 7.79921729255011 0 0 0
2243 671 3 -0.67874 3.8741265364183226 15.895259723416606 5.753173202524648 -1 -1 -1
588 167 2 0.24746 2.6181921936463617 14.696447319924482 10.500631926723463 1 1 -1
267 75 3 -0.67874 2.868188635470647 11.271788623516242 4.374178337328815 0 1 0
20 6 7 -0.69711 7.352480018366919 13.400449197926413 3.2138345927631757 0 -2 0
1619 463 3 -0.67874 7.836526850195503 15.57122585592984 1.4809408764025032 -1 0 1
2244 671 1 0.43128 3.7025803291519033 15.285009447663985 5.039524135576985 -1 -1 -1
1594 455 2 0.24746 8.757684985502937 11.420393877062734 11.026165953081131 0 0 -1
1557 444 1 0.43128 5.684508348406627 13.549885854418005 12.299783516642451 0 0 0
1310 374 1 0.43128 0.593235853798473 14.357867455684202 12.451423556296 0 -2 0
892 253 3 -0.67874 6.789070736421474 17.348390982265496 8.805026856241195 -1 0 -1
1169 334 5 0.2556 1.7790992819502043 14.173552303760562 2.9556782187688357 0 1 1
1620 463 1 0.43128 7.603062777384999 14.756389674510825 1.9190153690493665 -1 0 1
590 167 1 0.43128 0.8543697689398528 14.033379788295862 9.98737561739705 1 1 -1
1555 444 2 0.24746 6.923023579974123 14.729959142782414 11.36208290483044 0 0 0
1311 375 5 0.2556 5.52934515721707 18.713443256725622 4.729306363811181 0 2 0
1618 463 2 0.24746 6.643703905033586 16.318349328055756 1.2536866053697895 -1 0 1
1313 375 4 0.44151 5.093772035098303 17.06903978362046 6.1061560703457705 0 2 0
2257 676 2 0.24746 8.790307218554464 10.85008735952426 5.272271008465471 0 -1 1
22 6 6 0 7.684361742284481 15.294374478131251 5.0297094577470665 0 -2 0
2242 671 2 0.24746 3.8952838199524344 15.163471049910669 6.977243259045486 -1 -1 -1
1095 311 3 -0.67874 0.08068051437507576 17.57568386870245 7.7256376115477705 -2 1 -1
147 42 2 0.24746 5.402179233693411 10.188925084749524 7.35252628914462 0 1 0
1172 334 6 0 2.3127634969650606 16.083252456626774 2.8858032241065836 0 1 1
893 253 1 0.43128 6.202901776911494 17.41485773753258 8.049768664183166 -1 0 -1
1974 581 1 0.43128 5.311478861505935 12.386616712200102 1.2041449001871065 1 1 -1
19 6 5 0.2556 6.240752035070896 14.16221405379825 4.275482852383212 0 -2 0
2258 676 3 -0.67874 7.6205166360354015 11.036371776664387 4.480055519456484 0 -1 1
856 242 2 0.24746 8.024930779892912 13.604601399259732 8.219298577973843 1 1 0
857 242 3 -0.67874 9.38158592481786 13.271468778596503 8.503270112119791 1 1 0
1312 375 7 -0.69711 5.569310822118661 17.89111756137034 6.2353036374659405 0 2 0
1972 581 2 0.24746 5.849348061608773 10.526925846543797 1.4424433337571037 1 1 -1
1171 334 4 0.44151 3.0140025636612333 12.877495910640514 4.216221259730624 0 1 1
891 253 2 0.24746 6.405732735066001 18.3329867756027 9.762478111385121 -1 0 -1
1096 311 1 0.43128 0.32529555868963617 18.443104463780546 7.402801091811732 -2 1 -1
1556 444 3 -0.67874 5.625907292915908 14.186957906978328 11.589224564398654 0 0 0
589 167 3 -0.67874 1.2158465940398209 14.548650397459028 10.708987690884301 1 1 -1
21 6 4 0.44151 6.8454367696735074 12.762057937062133 2.7069831208689417 0 -2 0
608 173 2 0.24746 9.576340117048758 17.874190253685324 6.969038944397013 -1 1 2
268 75 1 0.43128 3.4033216548969154 10.803353464300825 5.016297533971276 0 1 0
609 173 3 -0.67874 9.226420454648512 18.017349495866625 8.344108114672387 -1 1 2
266 75 2 0.24746 2.3146644104537604 10.320524025949227 3.468622344205829 0 1 0
619 176 3 -0.67874 0.5174711832210734 12.89012997722663 8.752676539356134 0 0 0
610 173 1 0.43128 8.324549342596125 17.70780433569288 8.46193463174595 -1 1 2
2259 676 1 0.43128 7.630958480690541 11.924369138337696 4.130161963369306 0 -1 1
752 212 4 0.44151 9.53751876632201 15.411760215865511 1.5610703837626678 0 0 -1
1973 581 3 -0.67874 5.715072918531668 11.87026182173422 1.8990113588193962 1 1 -1
1596 455 1 0.43128 9.687911470880454 12.77063549059246 9.965163312443904 0 0 -1
799 225 6 0 8.507915878024262 18.009895154379038 19.9715605433064 -2 -1 -1
2401 724 2 0.24746 9.007014967080835 17.326603585403028 13.860221235532022 2 2 0
286 80 6 0 7.163387904501773 17.87966031480184 23.555052513668468 -1 2 1
1168 333 1 0.43128 2.99653206409513 11.042132282663275 16.385700449889796 2 0 3
1653 474 1 0.43128 5.826031474001277 9.869452628682984 23.50988027839546 1 1 -1
1839 536 1 0.43128 2.5477029473341273 14.556544538276269 21.35734024393802 1 2 0
1599 456 1 0.43128 5.827441614646135 13.820588229974007 18.724375182676226 0 -1 0
247 69 4 0.44151 1.2765923150299363 15.750143947830727 23.13424843447248 -1 1 0
645 183 1 0.43128 7.339204784720222 15.216030539159084 18.159330437537072 1 0 -1
1837 536 2 0.24746 3.6362377339083793 15.912631943806247 22.238945131964467 1 2 0
1651 474 2 0.24746 4.66629283149891 11.269779803612776 22.791345198410724 1 1 -1
797 225 7 -0.69711 8.883150851711566 18.290878670630715 17.367869496756477 -2 -1 -1
429 121 6 0 8.508167876694289 14.82066217951408 22.95992330628478 0 -2 0
2051 607 3 -0.67874 6.290753333333723 17.204447151830635 17.634832480888782 0 0 -2
1597 456 2 0.24746 4.273722964368874 14.562904767339262 17.81089179579256 0 -1 0
644 183 3 -0.67874 7.277433379384532 14.494598346609822 18.785218284837644 1 0 -1
1423 406 5 0.2556 5.669590685311542 18.915027402936257 14.05409099152354 -1 -1 -1
283 80 5 0.2556 8.77509488017864 18.76210745955982 24.3034922649038 -1 2 1
1598 456 3 -0.67874 4.88464169450791 13.686681234841346 18.753513760253654 0 -1 0
2412 727 1 0.43128 0.6837960164862892 15.612203447673032 16.1761855822647 1 1 1
245 69 5 0.2556 1.3680932607079084 17.386065194653675 24.590459754121756 -1 1 0
1189 340 2 0.24746 6.823438420604882 12.390049879385673 14.457560705331879 0 0 -1
1166 333 2 0.24746 2.168270866756512 10.58722124116463 14.67454590621653 2 0 3
643 183 2 0.24746 8.379491090837405 13.61618020169248 18.571044913745386 1 0 -1
1951 574 2 0.24746 1.8560401757249103 16.952074867585715 13.964099200116891 2 0 0
2175 648 1 0.43128 5.0449732585893825 11.74064001575646 17.461226790615648 3 -1 0
1838 536 3 -0.67874 2.3871897253886334 15.388864534974251 21.79339616967936 1 2 0
1190 340 3 -0.67874 5.811648517586345 12.259866986545424 13.460502614029595 0 0 -1
2050 607 2 0.24746 5.23129822023948 18.022539129553753 18.12704833948937 0 0 -2
2173 648 2 0.24746 5.420262539893378 10.007506865503714 16.642531619017966 3 -1 0
2052 607 1 0.43128 7.108817997187606 17.693213247223767 17.708760129281185 0 0 -2
1420 405 7 -0.69711 2.764525478379915 13.282525395879368 20.403685634050824 1 -1 -1
1953 574 1 0.43128 0.41633715930850124 15.635068281515084 14.03387129464856 2 0 0
1952 574 3 -0.67874 1.0676737364217403 15.979453914771126 14.645615482841773 2 0 0
1421 405 4 0.44151 3.512110058536434 13.464304235098876 19.824279469577878 1 -1 -1
1167 333 3 -0.67874 2.101994635895993 10.974788788834605 16.045761546708064 2 0 3
2174 648 3 -0.67874 4.549258951629339 11.089381017721147 16.962548592430814 3 -1 0
1244 356 2 0.24746 1.3456092387932015 18.54394491408888 20.666560071493684 0 -1 0
1422 405 6 0 0.4101435321541771 12.245933855336208 21.01690201610306 1 -1 -1
1652 474 3 -0.67874 5.642294527333784 10.240142267661746 22.643058456010074 1 1 -1
798 225 4 0.44151 9.25400791604404 18.058125541642884 16.512777237701414 -2 -1 -1
1419 405 5 0.2556 1.6663732960160522 12.337760535456535 19.48477810799458 1 -1 -1
796 225 5 0.2556 9.502612924326415 17.147367153013096 18.4877553451869 -2 -1 -1
1191 340 1 0.43128 5.756007720374266 11.337230477097258 13.204908480203775 0 0 -1
246 69 7 -0.69711 0.7132653049447335 15.96253932541702 23.8862451539725 -1 1 0
1425 406 4 0.44151 6.715976639522834 18.782401863565422 15.971270767260277 -1 -1 -1
2410 727 2 0.24746 0.2306371559672348 13.965910643387087 17.123280523315806 1 1 1
2411 727 3 -0.67874 0.3667446324109574 15.383029366246689 17.050320926220795 1 1 1
1330 380 1 0.43128 1.3648143710936333 9.90408025223677 17.068921794258305 1 0 -2
1319 377 3 -0.67874 3.5983589821850916 14.924698295437254 36.59438160581638 1 -1 0
260 73 7 -0.69711 5.411545719476914 12.897854618360041 36.81082178925493 1 1 -1
262 73 6 0 7.0335507517660485 11.1344654984248 35.6892149068874 1 1 -1
1210 346 5 0.2556 0.2623258870154172 14.724634287995892 28.936694325274967 1 0 -1
261 73 4 0.44151 4.703663621351662 13.545859329006879 36.81705799361839 1 1 -1
169 48 4 0.44151 3.9737186962383353 10.070931227260632 32.46022589060861 0 0 -1
167 48 5 0.2556 3.7723789447568423 12.211173628693594 32.045545815252694 0 0 -1
322 91 3 -0.67874 1.648908053731914 12.260242968596579 27.219621667157416 1 0 1
2364 711 1 0.43128 8.493529712601456 13.702865071512637 27.684078580937058 0 2 2
1318 377 2 0.24746 3.7666122748036743 16.215783249286424 36.013972396470834 1 -1 0
1103 313 6 0 5.6006163900686525 10.95201198741594 29.32477158016446 1 1 2
1550 442 6 0 1.6811708286841103 12.238890524334607 37.10086833317553 0 0 -2
572 162 7 -0.69711 0.9808000765775653 10.2669198004705 32.02883486321457 -1 -1 -1
496 141 5 0.2556 6.273856503798413 15.758960504887787 29.041832656139626 -1 -1 2
259 73 5 0.2556 5.55401547681242 12.35751130659886 35.18777449986737 1 1 -1
1474 420 1 0.43128 4.250024313469085 18.686748451607833 27.794850644490445 2 0 -2
1102 313 4 0.44151 7.782330249091731 12.807881118091546 31.40000100898792 1 1 2
2159 643 3 -0.67874 4.12844041970822 16.429364125271185 25.611107785431297 0 0 -1
2265 678 1 0.43128 8.222777169740766 19.136594870333248 32.35059803479169 3 -1 -1
321 91 2 0.24746 2.157609550315573 11.275707466194024 26.322841830379275 1 0 1
1320 377 1 0.43128 2.673266084627141 14.682748689842292 36.53272191759193 1 -1 0
2263 678 2 0.24746 8.153238223724642 17.2009182464424 32.62322343005097 3 -1 -1
2264 678 3 -0.67874 8.841472780992621 18.45076914790171 32.61651946947157 3 -1 -1
1213 346 6 0 1.6508899305740794 15.073162897971969 30.31020628991866 1 0 -1
1548 442 7 -0.69711 0.7879609104859768 14.729460860365833 37.03664700287224 0 0 -2
1473 420 3 -0.67874 3.8333105668125076 17.82767827479399 27.83833415265427 2 0 -2
1100 313 5 0.2556 7.479437380789783 11.25972697558078 29.882269263098422 1 1 2
1547 442 5 0.2556 0.05556942755264404 13.24683497851418 36.574079261322524 0 0 -2
2160 643 1 0.43128 4.029293736650315 16.87093422444947 26.454873588354168 0 0 -1
1101 313 7 -0.69711 6.9838634073867905 12.48385100916285 30.97884657524009 1 1 2
168 48 7 -0.69711 3.5386023909568936 10.771395274627785 32.951348565814 0 0 -1
1410 402 6 0 7.004036205976953 11.58537287146183 25.505051284085166 -1 1 1
288 81 3 -0.67874 9.520357158123668 13.564886662220989 31.733368600821265 -1 2 1
323 91 1 0.43128 1.0309025958233469 12.810273782228661 26.744963155172922 1 0 1
573 162 4 0.44151 1.7792436123647544 10.422625273421986 32.54112522994296 -1 -1 -1
1472 420 2 0.24746 2.7034884240767534 17.916517783549782 28.70192339488855 2 0 -2
170 48 6 0 2.7609046633395096 13.261619972583205 33.390511524569845 0 0 -1
1549 442 4 0.44151 0.13919299574057536 15.416768166102733 36.85931518992112 0 0 -2
571 162 5 0.2556 1.2185951249171547 11.051836380604064 30.520514845075216 -1 -1 -1
497 141 7 -0.69711 7.077297489407869 14.295183842078282 28.64686272228781 -1 -1 2
498 141 4 0.44151 6.751741042830502 13.63371919419367 29.26851189210372 -1 -1 2
499 141 6 0 7.226251941798104 16.710705456783696 27.58535063502442 -1 -1 2
2363 711 3 -0.67874 9.282662816611873 13.261170410346237 27.364466656978973 0 2 2
2158 643 2 0.24746 4.144222805844254 15.022135683728894 25.83805928698275 0 0 -1
2329 700 2 0.24746 9.52035033886991 17.13284456735302 36.064149516599485 -1 -3 1
1179 336 1 0.43128 9.646756557592678 18.124937469964408 30.130893637446082 2 1 -2
916 260 2 0.24746 3.862925772580618 19.305817708066115 32.41899355545531 1 -1 0
133 37 4 0.44151 4.421841002142578 24.720497987576547 7.182459608113286 0 0 0
392 110 6 0 0.20567530658872055 26.037695030654778 3.328592540290235 2 -1 1
699 197 6 0 5.614017583633719 26.308000545216 12.95390820565525 1 -3 1
2406 725 1 0.43128 2.167203804462703 27.407288635740866 4.991083366899356 0 1 2
501 142 7 -0.69711 3.689186666832485 24.16676516684973 8.712434577643869 2 2 2
131 37 5 0.2556 6.048455175607189 23.95963251960186 5.930824752552159 0 0 0
389 110 5 0.2556 1.631973880902877 24.71185382946144 3.7069379831043356 2 -1 1
178 51 2 0.24746 2.697198410729246 20.118690178396374 10.56402096111388 -1 -1 -1
2326 699 2 0.24746 0.890372604537133 20.44390257050511 5.117916263554159 4 1 2
1703 491 3 -0.67874 9.436806820438326 20.98343122844729 8.05731247328132 2 -2 0
401 113 1 0.43128 8.331093030512077 21.691488626566144 9.016491911725748 1 2 0
180 51 1 0.43128 3.045146353163082 21.732100072310423 11.607943211173144 -1 -1 -1
500 142 5 0.2556 2.5383308282365844 24.856627102646563 9.780429386539389 2 2 2
400 113 3 -0.67874 7.959435873594838 22.292996734676766 9.659060409039085 1 2 0
390 110 7 -0.69711 2.116642961006119 25.586993284610518 5.102218179247842 2 -1 1
1146 327 2 0.24746 7.899809504365254 25.866302984564683 9.861572292283192 -1 -2 -1
294 83 7 -0.69711 9.086992328817237 24.53138041108185 1.291800918501282 1 1 -1
503 142 6 0 2.761617665744336 26.633796783041703 8.927433621573167 2 2 2
502 142 4 0.44151 3.7558847642747653 23.239623429667077 8.950684618717164 2 2 2
838 236 6 0 3.071576068805608 22.210233933320584 1.4450796059465718 -1 -1 1
132 37 7 -0.69711 4.561330229504412 24.76247077540786 6.231980433440776 0 0 0
1704 491 1 0.43128 9.57180520991394 20.107340729088254 8.417634028085 2 -2 0
836 236 7 -0.69711 5.544739930531923 21.277046600523335 1.5374757658301383 -1 -1 1
1147 327 3 -0.67874 9.02037645522637 24.9852257324971 9.875589691515898 -1 -2 -1
332 94 2 0.24746 6.849832205962526 28.354835735127452 3.6694910453972183 1 -1 -1
295 83 4 0.44151 8.134308650436685 24.458706417758002 1.1877954660136347 1 1 -1
179 51 3 -0.67874 3.373425598767222 21.35192750985161 10.791497717361247 -1 -1 -1
2404 725 2 0.24746 3.337778529480424 28.427775907539573 6.1729916819806006 0 1 2
1771 514 2 0.24746 0.2769926146918915 23.832093102884453 7.4491955324093535 3 0 -2
399 113 2 0.24746 6.555723191088578 22.388451326697037 9.427373319150611 1 2 0
1314 375 6 0 6.567109774137032 20.223237909992193 5.489827783087295 0 2 0
134 37 6 0 5.881812015859736 24.30205465096277 3.984172476298023 0 0 0
1551 443 5 0.2556 1.0018598401340073 28.74543849127505 11.516672696554144 0 0 -1
391 110 4 0.44151 2.8525519740715386 25.09833068495694 5.4837458997423125 2 -1 1
1148 327 1 0.43128 8.698679157559168 24.086912394060917 9.957982507324026 -1 -2 -1
2327 699 3 -0.67874 0.1542635402208859 20.202756459688718 6.313172678055464 4 1 2
2405 725 3 -0.67874 2.30960752309257 28.33104307307668 5.189346989744153 0 1 2
835 236 5 0.2556 4.146262298748854 20.709274646325134 0.7203556859854057 -1 -1 1
1713 494 1 0.43128 6.139295024303781 22.95683495787622 1.147211960906858 0 -1 2
837 236 4 0.44151 6.251946134876512 20.660876303708378 1.3198370358829865 -1 -1 1
1712 494 3 -0.67874 6.646826727036678 23.633075392291797 0.7024857181979642 0 -1 2
293 83 5 0.2556 9.591045812323166 23.11577385826999 2.1192310061032087 1 1 -1
2104 625 2 0.24746 0.9262318901012496 19.480697665220823 0.566587090858149 1 0 -2
32 9 1 0.43128 5.53030768296188 22.98895003702079 17.368826447437478 1 0 0
1195 342 2 0.24746 2.030415090610354 23.398721313023067 20.99641109834554 0 -1 0
1782 517 1 0.43128 0.5211917270877533 25.642486333927796 20.1848521424116 1 2 1
697 197 7 -0.69711 6.793719107203668 24.396615141484688 14.35387391311141 1 -3 1
2084 618 3 -0.67874 2.422363090864969 22.257535699964606 13.334715561903833 1 2 2
1245 356 3 -0.67874 2.1945353309655538 19.646877120832254 20.355491945601354 0 -1 0
2004 591 1 0.43128 5.738709680921524 25.317280898606512 21.428038808673875 1 -2 1
2002 591 2 0.24746 5.191635995892625 26.660223420455612 20.119736230184714 1 -2 1
863 244 3 -0.67874 7.293039353919715 23.651086391758557 17.643421462892928 -1 0 -1
696 197 5 0.2556 5.76232461496885 24.33006260680716 12.982981024261097 1 -3 1