LAMMPS data file via write_data, version 29 Aug 2024, timestep = 1000000, units = real

2638 atoms
7 atom types
1909 bonds
5 bond types
1180 angles
3 angle types
1353 dihedrals
3 dihedral types

-0.8649555584013093 39.80607555840177 xlo xhi
-0.5142404833098233 39.251350483303675 ylo yhi
-0.40702224739641935 38.84524224740407 zlo zhi

Masses

1 1.008
2 15.011
3 15.999
4 1.008
5 14.011
6 15.011
7 15.999

Pair Coeffs # lj/cut/coul/long

1 0 0.4
2 0.239639 3.7543
3 0.174632 3.03
4 0 0.4
5 0.171477 3.4612
6 0.238761 3.6072
7 0.169017 3.1496

Bond Coeffs # harmonic

1 1000 1.4246
2 1000 0.9451
3 1000 1.9842
4 1000 1.71581
5 1000 0.95053

Angle Coeffs # harmonic

1 1000 108.53
2 1000 106.368
3 1000 90.95

Dihedral Coeffs # quadratic

1 1000 180 
2 1000 180 
3 1000 180 

Atoms # full

2184 616 7 -0.69711 3.351650854402817 9.217484558022123 9.61458495254528 2 0 2
1034 295 3 -0.67874 3.260517112381537 6.799322825677416 8.639846980964103 1 0 0
2477 689 4 0.44151 3.7205722575868707 3.11010171207557 6.0818593639663 1 2 1
2601 720 4 0.44151 6.482359398625131 4.468961450290468 10.535541063441825 -1 1 1
1862 533 2 0.24746 3.589144994608316 1.5246641530758938 9.06429937030408 1 0 0
2289 642 4 0.44151 8.741145081696155 6.497649130742398 6.5859204283198185 0 1 0
2387 667 5 0.2556 1.5028260856057907 5.53296599192599 5.725045507103203 2 1 0
1003 287 5 0.2556 2.8650453260439344 7.970015982072978 3.651038283612837 0 0 -1
2137 604 4 0.44151 8.80410690608405 6.989504045154101 4.27207981929162 2 1 -1
2476 689 7 -0.69711 4.305607061728522 2.345239683669232 6.113751874366629 1 2 1
1006 287 6 0 4.448881459803512 8.39828879026006 2.537308071426839 0 0 -1
1033 295 2 0.24746 2.5604562286916908 5.994315204023117 9.584713983736961 1 0 0
2475 689 5 0.2556 4.443967035007883 1.7790551352753217 4.500175597267736 1 2 1
2288 642 7 -0.69711 8.16979849000913 6.435701480852079 5.81491999122289 0 1 0
2599 720 5 0.2556 5.877295734173163 6.564032790967163 10.733303086126766 -1 1 1
1612 462 1 0.43128 6.250515799798906 2.328408757575613 8.998522307075442 0 2 2
1333 382 2 0.24746 5.116919307645446 -0.20071853873277817 1.2799738733484924 0 1 2
2600 720 7 -0.69711 6.439105984645731 5.045947442451952 11.304206447978336 -1 1 1
2135 604 5 0.2556 8.41810875530864 6.442130502801821 2.1869479385837582 2 1 -1
1949 557 4 0.44151 6.9361160357632645 4.9962826131605595 -0.3822090854242842 2 0 1
295 86 2 0.24746 -0.027490447621817182 9.143295613217292 10.109416653667973 -1 -2 0
1086 310 1 0.43128 7.174445893871686 3.1718484079722518 1.3813213638681592 0 1 -1
2390 667 6 0 1.369794319593772 4.1536662142391325 4.3056784776401775 2 1 0
1863 533 3 -0.67874 4.857347626750239 1.2956068942565964 8.454620202534954 1 0 0
2290 642 6 0 5.874914917359055 6.035003921037754 4.560980385329127 0 1 0
1334 382 3 -0.67874 6.19412245328745 0.31209735998481003 0.4976759058299782 0 1 2
1663 477 2 0.24746 0.40423141632515613 0.5292407169441513 2.0310992275702278 0 2 1
2287 642 5 0.2556 6.606650424190928 6.042585365147637 6.405125331706006 0 1 0
2406 671 6 0 8.950003334159756 8.712302391695355 8.986663252765295 0 0 1
2389 667 4 0.44151 3.2528226521570662 5.396693957882659 7.0334034077373335 2 1 0
2388 667 7 -0.69711 2.973822332824599 4.853647321907915 6.288669359250511 2 1 0
1610 462 2 0.24746 7.676537014299875 3.2071506849905385 8.000129084031464 0 2 2
1950 557 6 0 4.4865901039205225 3.5744153071401072 1.7326968392135407 2 0 1
2478 689 6 0 5.654567825366218 0.3184207956970758 5.081053123050083 1 2 1
1335 382 1 0.43128 6.718165407369251 0.8945302849386998 1.0474538913623757 0 1 2
1864 533 1 0.43128 4.740773921903118 1.2910882895008802 7.5042413768474745 1 0 0
1948 557 7 -0.69711 6.504993154109719 4.633275078161424 0.39230323304390835 2 0 1
1084 310 2 0.24746 8.852495049272386 2.486291791697756 2.1072853983904647 0 1 -1
1085 310 3 -0.67874 7.570262297760765 2.3092968688722757 1.5103674606707007 0 1 -1
1611 462 3 -0.67874 6.952571988359845 2.94222386972066 9.199179167537567 0 2 2
1035 295 1 0.43128 3.400086367675784 7.663383144534238 9.02193881305705 1 0 0
1947 557 5 0.2556 4.909351738987428 4.229439691380068 -0.091512599603771 2 0 1
1664 477 3 -0.67874 0.16979245201446536 0.14862893701740965 3.384467024446971 0 2 1
2136 604 7 -0.69711 9.104917077661929 7.383436265292267 3.446110897911822 2 1 -1
771 221 3 -0.67874 -0.47402161010925603 8.60223072504622 3.6685453798422722 0 0 2
1280 366 1 0.43128 8.112483683894288 9.13212172212468 2.964410985390904 0 1 0
2602 720 6 0 5.962654903582276 7.3209551429628625 12.564512926114013 -1 1 1
1074 307 2 0.24746 -0.5400026617321082 0.9272164179515263 9.04389698644617 0 0 1
1004 287 7 -0.69711 1.9648735233478352 9.232217219414814 2.9126530967315065 0 0 -1
1005 287 4 0.44151 1.0976420699259157 9.216496769911469 3.323580451014258 0 0 -1
2185 616 4 0.44151 3.6889432391325485 9.353386310617614 10.507712203095858 2 0 2
2138 604 6 0 9.28256040163175 7.586375060187461 0.8163689658711561 2 1 -1
2230 627 6 0 6.2140934064181 2.1633105024888937 20.883498440761937 1 1 0
1158 331 3 -0.67874 -0.09946598345102298 7.23094064854887 17.573229317453322 1 0 -1
193 57 5 0.2556 3.6243981655774586 6.584892937787045 16.790331810227187 0 2 -1
650 187 7 -0.69711 3.291229075266622 5.948181228942531 21.502288899711967 0 -1 -2
698 201 5 0.2556 2.3135251375392882 2.284641390683455 22.764851741678854 1 1 1
1895 542 7 -0.69711 -0.36036913513832736 0.254131670531376 20.227340614761577 1 0 -1
2229 627 4 0.44151 7.630718557039854 5.21416507591719 19.784920027900753 1 1 0
1662 476 6 0 5.597651612734216 1.4573045619608198 14.809483833677007 2 2 0
2095 594 5 0.2556 5.205666406213054 6.3762707623659525 24.0006694916154 1 -1 -1
932 266 1 0.43128 1.146942315195977 7.7879364565282945 24.460165128326537 -1 2 0
2244 631 7 -0.69711 -0.20269063446978652 4.481227671817247 12.917472419884215 1 0 0
1344 385 3 -0.67874 6.890276866691252 1.4184780125615948 24.95914159822316 0 1 2
1952 558 7 -0.69711 1.7403894669651354 1.7696869754054347 19.201036638803384 1 0 0
2246 631 6 0 2.114809019926101 3.439976443972754 13.655073463355464 1 0 0
1343 385 2 0.24746 6.37677450441176 2.707589648370733 24.63410501249313 0 1 2
1298 372 5 0.2556 0.09486193511090679 5.939189051470902 22.683941208377338 1 0 -2
92 27 1 0.43128 3.253263372528721 0.029382301975291125 25.205002032897347 -1 -1 1
195 57 4 0.44151 3.953338591732302 8.579380949116537 17.639078297735907 0 2 -1
1300 372 4 0.44151 1.9151721232080252 7.149300500301297 22.55509543522679 1 0 -2
194 57 7 -0.69711 4.520990470685691 7.799905511639112 17.607026834515366 0 2 -1
1659 476 5 0.2556 6.221207830779906 2.472500597287441 13.22445695138681 2 2 0
1951 558 5 0.2556 2.3454423655350554 0.8900332681237328 17.857301302192397 1 0 0
700 201 4 0.44151 2.292358324377481 2.76646112761853 20.631189272104173 1 1 1
699 201 7 -0.69711 2.483152796954708 3.308049235780117 21.398432196400606 1 1 1
1939 554 1 0.43128 0.4066765496328044 8.587390898686078 18.864473049128254 1 0 1
1294 370 1 0.43128 8.092956376304018 8.585253929047893 17.625335558234713 2 2 0
414 120 7 -0.69711 0.6240190067586393 6.64151731417678 14.551801676651046 1 -1 0
701 201 6 0 2.7799831532124726 3.7792525148994542 23.983452566234806 1 1 1
822 235 4 0.44151 5.913737536452302 -0.29250140481027975 25.25082035114066 1 0 0
196 57 6 0 5.125834004203064 5.302541915359108 16.981654614995538 0 2 -1
2098 594 6 0 4.510220705915477 8.186590562642118 24.41350952596746 1 -1 -1
2348 657 7 -0.69711 7.033813407658467 7.3296025313738244 19.00576439517562 2 0 1
1953 558 4 0.44151 1.0173069838989715 1.2453899214497328 19.562110444983457 1 0 0
1293 370 3 -0.67874 8.338751028985527 9.316107624572245 17.05852897790434 2 2 0
2227 627 5 0.2556 5.863595767713731 3.981234168603474 20.170502530803322 1 1 0
2385 666 4 0.44151 9.01395779073096 3.531272797751413 21.313271533556456 2 0 0
2349 657 4 0.44151 6.224774996383859 7.35900243228747 18.48510891104417 2 0 1
2097 594 4 0.44151 7.364327656780537 6.100313317870592 24.249207306031327 1 -1 -1
652 187 6 0 3.4822226793037006 8.478889622352732 20.75647815230853 0 -1 -2
2350 657 6 0 8.443325271046731 7.3746315589350075 21.24148551149304 2 0 1
1661 476 4 0.44151 5.4839265154441055 4.524634227610686 13.052900799639302 2 2 0
1157 331 2 0.24746 0.2563823394312099 5.954455995601839 18.09844661090507 1 0 -1
931 266 3 -0.67874 1.2109172390523133 7.856501443379658 25.41430574699978 -1 2 0
649 187 5 0.2556 2.850201440999293 6.738346889229722 20.043952134879653 0 -1 -2
1954 558 6 0 3.704460800864025 2.2917291669797777 17.50790828069892 1 0 0
651 187 4 0.44151 3.0624827282061395 5.022680655331467 21.38621806948023 0 -1 -2
2096 594 7 -0.69711 6.803369838213907 6.871462828401546 24.384701638937774 1 -1 -1
1159 331 1 0.43128 0.09016074711037514 7.236177346161122 16.637205562677384 1 0 -1
1299 372 7 -0.69711 1.0015889793218808 7.39524178025879 22.73294864068296 1 0 -2
2228 627 7 -0.69711 7.545425340813733 4.319339757116689 20.123457094961292 1 1 0
2347 657 5 0.2556 6.554911905884763 7.486787264288303 20.64638422751519 2 0 1
541 156 6 0 8.935035833805069 5.432991581428815 15.832930194235853 -2 1 0
1660 476 7 -0.69711 5.325690744038825 3.8497417801161653 13.717302740852109 2 2 0
1345 385 1 0.43128 7.784021669256283 1.3563309246557311 24.62372016918023 0 1 2
91 27 3 -0.67874 2.3068445399253013 0.15479257725784146 25.272633758431745 -1 -1 1
415 120 4 0.44151 0.45059733834948146 5.848731364339249 14.033504177797239 1 -1 0
2152 608 7 -0.69711 9.027045031208704 4.659551011974176 24.197771100813473 0 0 0
413 120 5 0.2556 1.40520974354002 7.745287556816981 13.494097668936089 1 -1 0
426 123 6 0 9.08067928858539 0.16897691469292564 19.036719560415403 1 1 0
1896 542 4 0.44151 -0.42843335530632853 -0.25435318141803787 19.41591602477308 1 0 -1
416 120 6 0 1.5289127209047928 9.09541432565269 14.941715126768422 1 -1 0
2243 631 5 0.2556 0.3770924956653037 2.865525164977365 12.88885066281966 1 0 0
2153 608 4 0.44151 9.26096320784179 4.088634997733382 23.458053540867667 0 0 0
2304 646 7 -0.69711 2.7073844367758015 3.2150566448716 30.770109815894596 1 2 0
61 18 7 -0.69711 3.8363524030474956 5.775316416534349 29.849542726635654 -1 1 0
1245 356 1 0.43128 8.73365298709967 5.21205764235452 31.461459847661438 -2 1 -2
1713 491 1 0.43128 -0.3106368860265538 4.830328259778578 28.761646638210415 1 0 1
1243 356 2 0.24746 7.074907084113923 5.2604491179323585 30.434990841968478 -2 1 -2
2164 611 7 -0.69711 7.640381698449897 4.862118368496559 37.077075646682246 1 -1 1
1805 517 2 0.24746 -0.4815033784264018 0.8181450669027088 30.10326697310604 1 1 0
90 27 2 0.24746 2.0382778370477346 0.961661037376478 26.417184002906374 -1 -1 1
62 18 4 0.44151 3.7500856419319373 6.529544516692417 30.442641886410186 -1 1 0
2220 625 7 -0.69711 0.6576284473243921 0.6511914591427947 35.177986931924025 0 2 1
2597 719 4 0.44151 5.5733582459925035 -0.1585580748596938 38.02415821737606 0 2 -1
280 82 2 0.24746 5.590042009740322 4.978352484694735 34.236851277561996 2 2 -1
1581 454 5 0.2556 9.210770571143371 0.28541699409701793 34.326984180022016 2 0 -1
2221 625 4 0.44151 1.0639423156428784 1.5062452486867488 35.35310263515718 0 2 1
2154 608 6 0 9.029984340932543 5.4177557423563405 26.731375567550064 0 0 0
1564 449 2 0.24746 0.027362537858656832 4.071688651425074 35.337961705441025 1 2 0
1244 356 3 -0.67874 7.865715616907869 4.821016966305576 31.537200053901824 -2 1 -2
282 82 1 0.43128 7.258755866307329 4.504398809398834 33.34092721391381 2 2 -1
906 259 3 -0.67874 0.058424526286791734 4.634884107765638 30.482697499273854 0 -1 0
450 130 4 0.44151 0.8194875261470569 4.563733090820164 38.26340511380643 0 0 -1
281 82 3 -0.67874 6.998533963468722 4.75828608951678 34.226903197776586 2 2 -1
2596 719 7 -0.69711 5.250427556973178 0.06800674397323136 37.14837674085142 0 2 -1
2305 646 4 0.44151 3.052165161729454 4.046019162544613 30.43126407758368 1 2 0
907 259 1 0.43128 0.8979155197650774 4.218548304783625 30.668293996415905 0 -1 0
2598 719 6 0 4.969249546766598 1.6228533125456477 35.02891777443739 0 2 -1
60 18 5 0.2556 3.9123919553513202 6.420943909394935 28.261480563717125 -1 1 0
31 10 2 0.24746 1.980840784632481 6.487705447011002 32.89008318946842 0 0 -1
964 276 5 0.2556 8.409129721080896 8.993235769160403 27.415208044692505 1 0 0
1566 449 1 0.43128 1.569413631579208 3.8156548208261496 36.50822108466861 1 2 0
2306 646 6 0 2.8582808689276735 0.9039849791578309 32.05014066988617 1 2 0
1026 293 7 -0.69711 8.019339483624545 -0.08522034367581588 30.378783805534592 1 0 0
451 130 6 0 3.3926115293558716 6.604013862710434 36.9337816263777 0 0 -1
448 130 5 0.2556 1.4742305087258774 6.479063965224724 37.424155228487855 0 0 -1
1108 317 7 -0.69711 8.328971641400065 8.533328937258482 32.31802657424617 1 1 2
33 10 1 0.43128 2.456821217815748 8.068280540893891 31.848766035071762 0 0 -1
63 18 6 0 4.073573301106795 4.599381485414757 27.49169017674844 -1 1 0
1028 293 6 0 7.087485348255154 1.721282074280186 28.684077410932623 1 0 0
2595 719 5 0.2556 5.85733178784801 1.6353456256691379 36.802184871908985 0 2 -1
2303 646 5 0.2556 4.012711070648335 2.446890026042094 31.57808731730514 1 2 0
967 276 6 0 6.468725670822767 8.69865327537343 27.704058443402946 1 0 0
1025 293 5 0.2556 7.26595314250992 1.4348573086774274 30.63938189393642 1 0 0
1565 449 3 -0.67874 1.2227522368345634 3.3957086737253968 35.72148660109106 1 2 0
1107 317 5 0.2556 7.319409003678301 8.132609970528197 33.64678158530321 1 1 2
2165 611 4 0.44151 7.073242004461874 4.929858578250919 36.305638084090695 1 -1 1
32 10 3 -0.67874 2.767787696402934 7.167197721726037 31.914573761081265 0 0 -1
1109 317 4 0.44151 7.74711290889776 8.878498448236403 31.632141005381484 1 1 2
449 130 7 -0.69711 1.6838557153468545 4.859678080815222 37.95644049651078 0 0 -1
1711 491 2 0.24746 0.18553440025373646 4.666284658915181 26.878155164085634 1 0 1
2219 625 5 0.2556 -0.1940753411795032 0.8170917425642648 33.69764071886267 0 2 1
569 164 4 0.44151 0.4158891157641138 9.384872695601718 31.828025496577567 0 -1 -2
1712 491 3 -0.67874 -0.7764229354807203 4.793638917819045 27.923571427941038 1 0 1
1110 317 6 0 8.887742633609932 7.519709376980261 34.6964735398313 1 1 2
930 266 2 0.24746 0.0845647567800989 8.588423067738683 25.890630631386998 -1 2 0
1582 454 7 -0.69711 8.401097480127278 -0.39983799279919613 32.97760526238431 2 0 -1
1027 293 4 0.44151 8.213139180765296 -0.4422725301095307 31.252129976180218 1 0 0
2163 611 5 0.2556 8.99518707057668 3.9244019530118868 36.59656765380166 1 -1 1
1088 311 3 -0.67874 -0.7580342531984798 13.61843154556883 7.7122584840288955 1 0 0
1561 448 7 -0.69711 -0.6050776113188824 16.04525601582744 11.923134468681981 -1 0 1
1517 435 7 -0.69711 3.2381294425896954 18.673313373593928 8.033192600132228 1 0 0
2236 629 7 -0.69711 0.5414559814979529 18.159626688792397 9.659754483164116 2 0 0
2186 616 6 0 2.44143541145134 10.001091453101727 7.25553309058593 2 0 2
1213 347 2 0.24746 0.8067271081308645 17.534495989173834 5.273611490561607 0 -1 3
197 58 2 0.24746 -0.49797661319338704 11.971891981231979 4.495300705323252 1 1 1
1215 347 1 0.43128 1.6888939272562302 16.379121951142064 3.9698875064670522 0 -1 3
1543 442 1 0.43128 7.877863809156976 14.642777145670044 8.704928792478766 1 -1 1
990 283 2 0.24746 3.7802537601788275 12.057969486500179 2.188287245582496 0 1 0
865 247 3 -0.67874 4.258125118671181 15.557974494357591 11.712628842515239 -1 1 1
139 41 2 0.24746 3.9025416470104135 10.903711004536154 12.616214917563951 0 0 0
75 22 3 -0.67874 7.4554772493240495 10.187141802569961 5.704673963652891 2 1 2
1516 435 5 0.2556 3.8343831697347 17.378813435342895 7.075700875492398 1 0 0
459 133 3 -0.67874 2.6149787270842473 16.397925496448764 2.4606419562094897 0 0 0
1519 435 6 0 5.420063521450566 18.448596766055644 6.549988471214177 1 0 0
1981 565 4 0.44151 7.05671354197025 16.748879302256515 12.52357432546304 1 -1 1
2183 616 5 0.2556 3.0777432868599774 10.782778743326615 8.964141115210447 2 0 2
1541 442 2 0.24746 8.470293072240079 16.142789683467797 7.601134745982286 1 -1 1
866 247 1 0.43128 4.923104927006567 16.195336198275836 11.966843200111683 -1 1 1
1279 366 3 -0.67874 7.9094375315581384 10.062190665560932 3.0695079035788706 0 1 0
991 283 3 -0.67874 2.5099841404449243 11.693364060305369 1.6521454698849558 0 1 0
1734 497 4 0.44151 2.6025323676584424 15.095619272639269 12.604958656909737 2 0 1
2527 702 5 0.2556 7.07253161398798 11.54938518304117 8.967795057828326 1 -2 1
2342 655 6 0 -0.4831557287033603 16.490270441835904 0.3695237353664701 1 0 -1
2339 655 5 0.2556 -0.5630435876090809 14.666473597560472 1.1475701912500134 1 0 -1
2340 655 7 -0.69711 1.1394387455198673 14.492965296065291 0.9951336773786112 1 0 -1
1882 538 4 0.44151 8.905746574956249 10.961435673434089 6.396322670806074 0 0 0
1214 347 3 -0.67874 1.1640667927047423 16.252919639333797 4.759637580942792 0 -1 3
458 133 2 0.24746 3.999583494411504 16.084576270477495 2.328096986960843 0 0 0
140 41 3 -0.67874 4.897153818349361 10.209994270253464 11.866683841410676 0 0 0
141 41 1 0.43128 5.733504394059586 10.30066706928633 12.318231383269577 0 0 0
1278 366 2 0.24746 7.673208394424114 10.62072754489887 1.7798341044811332 0 1 0
1384 396 6 0 4.445620097059633 13.600300505296985 6.33274730219756 2 3 2
1518 435 4 0.44151 2.410471476087539 18.363329318161078 8.418820025626193 1 0 0
460 133 1 0.43128 2.149963258004164 16.037021935236275 1.7067408039113467 0 0 0
2341 655 4 0.44151 1.3521951571600401 13.621521946882828 1.3331714060531583 1 0 -1
2530 702 6 0 5.661175816948884 12.768264370116304 9.644826384093058 1 -2 1
74 22 2 0.24746 6.093717654040846 9.79917247012348 5.868105746784364 2 1 2
166 48 1 0.43128 8.372233731988239 16.252558274486237 10.485408840933767 -1 0 0
1382 396 7 -0.69711 2.229634091012387 13.388367600075886 7.762883103094779 2 3 2
992 283 1 0.43128 2.3060188034952995 10.802789769284619 1.9364919599222392 0 1 0
1381 396 5 0.2556 2.5210298639623745 14.065935163349655 6.2134039588687795 2 3 2
864 247 2 0.24746 3.7936889278937906 15.887598638950728 10.405719572456357 -1 1 1
1383 396 4 0.44151 1.2895307190349712 13.505776988585838 7.934815878863457 2 3 2
51 15 6 0 7.40099109677338 15.66934177216369 3.6269020251556574 -1 0 1
296 86 3 -0.67874 -0.7742398648846359 9.863149350629511 11.088087533324545 -1 -2 0
2237 629 4 0.44151 0.3614960034709107 17.568257705292353 10.396637700197067 2 0 0
1562 448 4 0.44151 0.18701786334739845 15.521126283041301 12.07756168724109 -1 0 1
76 22 1 0.43128 7.662622031666997 10.179441510454966 4.771918153154624 2 1 2
116 34 3 -0.67874 7.3764230095630765 11.094123561068184 12.539957830841841 0 1 1
2529 702 4 0.44151 8.544957559943652 12.447673676316727 7.619314864574811 1 -2 1
165 48 3 -0.67874 8.185675759512295 16.505272991294547 11.387491432869805 -1 0 0
117 34 1 0.43128 7.102216820444762 12.009842519049243 12.477396397318271 0 1 1
641 184 1 0.43128 6.08414338327789 14.110291064700768 12.360199266842043 1 0 -1
2528 702 7 -0.69711 7.783001571493907 12.825732496871806 8.067802985464171 1 -2 1
48 15 5 0.2556 8.578219729867227 16.26896739115332 2.146945280601678 -1 0 1
1542 442 3 -0.67874 7.96209861146273 15.592191205783134 8.814591160582626 1 -1 1
2541 705 4 0.44151 1.787316535990413 12.015140144361023 -0.18446145008925408 2 0 0
741 212 6 0 5.274900058420898 18.286482813992325 -0.3903354290550213 0 -2 0
2241 630 4 0.44151 5.741043348106042 15.437479687550002 18.887314277041224 0 1 0
1701 488 2 0.24746 1.8852253544662743 15.743438485555757 20.318497695642566 0 -1 0
640 184 3 -0.67874 6.715242276404353 13.584921482029735 12.851997329516248 1 0 -1
795 228 2 0.24746 1.5498896438961585 12.09679659220689 22.021392287860504 1 1 1
2242 630 6 0 4.215213158708953 18.39445711300163 17.685498067652638 0 1 0
1702 488 3 -0.67874 0.5048514472315171 15.798247750436659 20.667433927997855 0 -1 0
1122 321 2 0.24746 5.460867193900697 13.393953691670964 22.654485873176583 0 1 0
1937 554 2 0.24746 -0.3293713333163405 10.008933585418717 19.979176590670544 1 0 1
1124 321 1 0.43128 4.035600091569358 12.143279549845452 22.197257411608962 0 1 0
1980 565 7 -0.69711 6.272351211299147 16.913682471507595 13.054395436548058 1 -1 1
1703 488 1 0.43128 0.4019157804128781 16.40135963745407 21.401439652984852 0 -1 0
115 34 2 0.24746 8.79022056254137 11.057621178116994 12.716225133794014 0 1 1
21 7 2 0.24746 0.6266973852650766 18.273624319208857 23.565056202824007 0 0 1
2610 722 6 0 7.76465497294938 13.476023952370166 17.886732712718732 1 -1 0
797 228 1 0.43128 2.2291304238814287 11.445113010774044 23.730803241726015 1 1 1
2608 722 7 -0.69711 5.505918882918353 13.545918451817576 19.268218322056715 1 -1 0
2239 630 5 0.2556 4.643088563272153 16.4924720464883 17.316852046652727 0 1 0
1776 509 5 0.2556 6.900739208166916 11.079897088109451 24.412281679095916 0 1 -1
229 67 3 -0.67874 8.952293771415809 16.494826009415075 21.314353111796443 -1 1 0
2609 722 4 0.44151 4.868171148144981 13.217681129291488 19.909364017026483 1 -1 0
1733 497 7 -0.69711 1.8275027702637674 14.955925328842648 13.154692194531169 2 0 1
228 67 2 0.24746 8.21781689667234 15.27322624137471 21.334493074321234 -1 1 0
1052 300 1 0.43128 2.3185352029715482 9.79932963024466 18.044990702705924 1 0 1
2607 722 5 0.2556 6.801277502000838 12.417679739348284 19.260577531163246 1 -1 0
1735 497 6 0 0.4949305435980247 13.946035341022924 15.204853509178077 2 0 1
1732 497 5 0.2556 2.3202918307207145 13.914496437780752 14.427144864554116 2 0 1
1051 300 3 -0.67874 3.0424626294785466 10.163001121468513 17.53386142316793 1 0 1
1938 554 3 -0.67874 0.6706642197752175 9.468958858342384 19.119821224776537 1 0 1
1050 300 2 0.24746 2.989065058394554 11.584563260906902 17.623671708924704 1 0 1
1292 370 2 0.24746 7.147924088995568 9.929724309990164 16.571493284774157 2 2 0
2616 724 7 -0.69711 1.3364476157375442 11.985298387185816 25.225976964090176 0 3 2
100 29 6 0 0.12354291788304195 17.568028704419287 17.506132714025057 -1 2 1
1123 321 3 -0.67874 4.832115810866743 12.460299219482343 21.778949487078364 0 1 0
2617 724 4 0.44151 0.4066688322004708 12.207265646696783 25.145081347600925 0 3 2
40 12 6 0 5.820008748736527 16.2242199795207 24.81950564767521 2 0 0
796 228 3 -0.67874 2.595347257010241 11.623277951184242 22.866457288193978 1 1 1
2240 630 7 -0.69711 5.427919822284811 16.341854060232944 18.836191378201427 0 1 0
1778 509 4 0.44151 8.322730686260563 12.07923233580713 25.744504462054785 0 1 -1
639 184 2 0.24746 6.749256012700977 14.060512971562925 14.194825259851358 1 0 -1
1779 509 6 0 7.642577444890671 10.40703025799181 22.699958665632124 0 1 -1
604 174 6 0 5.238708593220943 18.7189036054343 21.293754078846767 0 0 -2
23 7 1 0.43128 -0.6761070926553348 18.217143363123512 22.112786122910858 0 0 1
1668 478 4 0.44151 8.991170645499176 18.40099387282246 22.23347372031238 1 1 -2
1982 565 6 0 4.360125153087721 18.411006187873443 14.098722621993119 1 -1 1
22 7 3 -0.67874 -0.15809313252418533 17.57789819429961 22.599544908586367 0 0 1
1979 565 5 0.2556 5.938846067221363 18.591145863779715 12.9116345152281 1 -1 1
1777 509 7 -0.69711 8.441347261372949 11.678290555728243 24.87893501498437 0 1 -1
1560 448 5 0.2556 -0.7657117623356396 17.082343001748757 13.282424473106405 -1 0 1
1667 478 7 -0.69711 9.231716871989681 19.216008447588987 22.677175003708115 1 1 -2
706 203 2 0.24746 9.300563655051473 17.158312710612726 18.19188080547803 0 0 1
1352 387 4 0.44151 8.328995373947118 14.703992448054812 34.77525962435865 1 0 1
161 47 7 -0.69711 1.4897378291142376 13.83712236935044 36.110735940032676 -1 -1 1
2618 724 6 0 3.7932131269650027 12.271256856100077 26.162899994508937 0 3 2
570 164 6 0 2.780107628216612 9.641680759124716 29.2048034343845 0 -1 -2
965 276 7 -0.69711 8.576664037088623 9.647367330619067 28.99368145063521 1 0 0
1615 463 4 0.44151 7.02702687734285 9.966526889335592 30.101095715167023 -1 1 -2
267 78 1 0.43128 -0.21920717738598827 13.731665990692067 35.39578172176908 2 1 0
2539 705 5 0.2556 3.219585359617546 11.051214432861043 37.72474344745103 2 0 -1
1613 463 5 0.2556 6.198285722607695 11.426453859511835 31.505482103677856 -1 1 -2
782 224 6 0 -0.22803012763882047 18.184931592785933 32.77365204173373 0 0 0
150 44 3 -0.67874 8.12891308379539 12.911323797145998 27.193550484258967 -1 0 0
149 44 2 0.24746 6.802568475248933 13.034666278757088 27.702234157941973 -1 0 0
2224 626 7 -0.69711 7.069826540595168 12.10937932988384 36.42244554061152 0 -1 -1
855 244 4 0.44151 4.620578685663207 15.925891648514387 27.83535672539007 1 -2 -1
151 44 1 0.43128 8.713123928057831 13.439894122356309 27.739038691863733 -1 0 0
1630 467 3 -0.67874 8.143442466626505 15.436323981528277 33.14889568785237 -1 0 0
1408 404 2 0.24746 8.47744897595689 18.9125731315937 37.9640928359054 1 1 1
39 12 4 0.44151 7.037522657272742 16.64827244193805 28.115400992685732 2 0 0
2191 618 5 0.2556 4.288634935628651 17.35407510213067 33.81545233302226 1 0 1
1631 467 1 0.43128 7.3340080387012225 15.927471979463718 33.27555284948704 -1 0 0
2540 705 7 -0.69711 1.6974682365388718 11.710963119976382 38.16161546274815 2 0 -1
2193 618 4 0.44151 4.678239829335313 15.74185232545917 32.385998743159256 1 0 1
856 244 6 0 1.742344014742879 17.95163515770026 28.141807328663152 1 -2 -1
854 244 7 -0.69711 3.7312898770399014 16.20906312245856 28.032469546668818 1 -2 -1
568 164 7 -0.69711 1.2526477668803326 9.446532467303937 31.355633869897982 0 -1 -2
1457 418 5 0.2556 9.246150045743349 11.958284023629341 33.492504197896956 -1 -2 0
162 47 4 0.44151 1.8117541160276005 13.022654890785772 36.51267296966584 -1 -1 1
1616 463 6 0 4.807429089274088 10.743219115770826 32.744659324145914 -1 1 -2
443 128 3 -0.67874 7.320865227091437 18.127105272063258 29.869367741515084 0 1 0
284 83 7 -0.69711 3.5452911804779923 15.721518225992135 30.870214103689598 1 -1 0
285 83 4 0.44151 3.658169205718913 15.995525716546041 29.958973094267773 1 -1 0
2542 705 6 0 2.5445882355767115 10.605495186157519 35.91354094326531 2 0 -1
283 83 5 0.2556 2.3544022601647288 14.487034507643083 30.85933262635856 1 -1 0
1351 387 7 -0.69711 8.22535044392302 14.513232642259442 35.712678003127806 1 0 1
163 47 6 0 1.2748517755837394 16.46283247785086 35.86526399330292 -1 -1 1
1353 387 6 0 8.899748736071041 14.638759488084125 38.26850833075009 1 0 1
853 244 5 0.2556 3.639447751165573 17.860540066422296 27.56862519412188 1 -2 -1
2192 618 7 -0.69711 5.108330158948555 15.970091555457287 33.2159126243651 1 0 1
779 224 5 0.2556 -0.3957334973435724 16.48591466456398 31.76321546028825 0 0 0
1629 467 2 0.24746 8.435220185544624 15.399587268735381 31.75454844168737 -1 0 0
38 12 7 -0.69711 6.457126556328149 16.441791135082592 27.377208313907538 2 0 0
286 83 6 0 2.4923158141101154 14.291840975002719 32.82890317756004 1 -1 0
160 47 5 0.2556 2.1842700494330356 15.122638878843192 37.010962912648466 -1 -1 1
2194 618 6 0 5.470191148621743 17.408096156457066 35.4084118138485 1 0 1
442 128 2 0.24746 6.18178932962764 17.914668537179733 30.69931935688721 0 1 0
2225 626 4 0.44151 7.495708965256862 12.964312221189832 36.31902778624546 0 -1 -1
2615 724 5 0.2556 2.0020341364090863 13.105191947992731 26.342438679710057 0 3 2
2226 626 6 0 6.806797202065287 9.668482178953704 37.40358856868148 0 -1 -1
1614 463 7 -0.69711 6.356970872392423 9.877865934135245 30.783732264563916 -1 1 -2
567 164 5 0.2556 0.8583985853141627 9.53784053941413 29.687794794778803 0 -1 -2
37 12 5 0.2556 7.353260013685269 16.773870135787615 25.95186186765388 2 0 0
444 128 1 0.43128 7.827872593410612 18.85423099425022 30.231716839187218 0 1 0
2223 626 5 0.2556 8.028907923641768 11.225719499928982 37.536510285063386 0 -1 -1
597 172 6 0 4.644107428810089 23.459193217986282 8.906920357317054 -1 -1 -1
1189 340 7 -0.69711 -0.1436821341751523 22.04007469974342 0.4999718136999034 0 0 0
605 175 5 0.2556 7.337802081248201 25.53983689451177 7.977466814714054 1 -1 0
594 172 5 0.2556 3.2718694902679957 22.06797188759067 8.562478084573355 -1 -1 -1
944 270 7 -0.69711 2.3414532686307314 27.360944443303506 7.987875971798738 -1 -1 0
2076 589 7 -0.69711 6.037289935205502 28.333799653230436 2.203361898955231 0 0 1
668 192 4 0.44151 8.834335668608118 28.213813577479634 8.841438735809291 0 0 0
2442 680 6 0 4.58946656033919 23.708065403406046 1.5287366436393575 0 0 -1
1395 399 6 0 7.441179536789122 22.41304682008525 5.826372535705202 0 1 -1
1393 399 7 -0.69711 5.407906753061375 24.062832981669903 5.441523739988887 0 1 -1
1654 474 1 0.43128 8.91520066995232 19.831738140386353 2.327266120204141 1 0 2
608 175 6 0 6.164697296650638 27.072730264836533 8.434037551970787 1 -1 0
2238 629 6 0 -0.10618973016991684 19.876508803930424 7.753050562723676 2 0 0
1822 521 6 0 8.735360670266695 20.219613256311302 8.392482984038022 0 -1 0
138 40 1 0.43128 1.6371182330830387 26.30468619465373 2.6449050849976468 -1 -1 0
1847 528 1 0.43128 6.8334751204291955 20.2109147291199 1.445805434757323 0 0 2
2077 589 4 0.44151 6.176052756476657 27.475404346118506 2.6217262423162198 0 0 1
943 270 5 0.2556 2.489134660687127 26.396575099593683 9.40045821791827 -1 -1 0
1392 399 5 0.2556 5.509654617031157 22.35027535735825 5.376927352072036 0 1 -1
137 40 3 -0.67874 2.370169935229145 26.561559154078623 3.2041816615442205 -1 -1 0
2425 676 4 0.44151 2.5271409356106256 28.74915998446225 12.262673577219998 1 -2 0
1190 340 4 0.44151 -0.28362603260631747 22.949336501708004 0.21903003872772886 0 0 0
884 252 6 0 1.3667186692074438 22.018907995020708 11.281193448112402 1 -1 0
777 223 3 -0.67874 6.927236997895469 26.05437182531602 3.6572557402975496 1 0 1
778 223 1 0.43128 6.558179432866798 25.31098182427729 4.131503747063674 1 0 1
945 270 4 0.44151 3.2014994057196606 27.76892959653654 7.850804795594149 -1 -1 0
776 223 2 0.24746 8.218750059301724 25.689210787922033 3.1790086916031504 1 0 1
1036 296 5 0.2556 4.6901128234051646 23.784422379792947 12.406324474533342 1 0 -2
401 117 5 0.2556 1.9884846131336578 22.78435296121869 3.1749909961804743 0 -2 1
404 117 6 0 2.553568415437495 21.2264767539982 4.266065261514431 0 -2 1
595 172 7 -0.69711 4.391606797941116 20.825719926695378 8.94625949385505 -1 -1 -1
1191 340 6 0 1.2608859995010353 19.81636790963104 0.800348885445884 0 0 0