LAMMPS data file via write_data, version 29 Aug 2024, timestep = 1000000, units = real

3148 atoms
7 atom types
2148 bonds
5 bond types
1148 angles
3 angle types
444 dihedrals
3 dihedral types

0.5648852964870876 43.04176470349755 xlo xhi
0.8987268831947475 42.64297311681092 ylo yhi
0.9915244162605745 42.25128558371695 zlo zhi

Masses

1 1.008
2 15.011
3 15.999
4 1.008
5 14.011
6 15.011
7 15.999

Pair Coeffs # lj/cut/coul/long

1 0 0.4
2 0.239639 3.7543
3 0.174632 3.03
4 0 0.4
5 0.171477 3.4612
6 0.238761 3.6072
7 0.169017 3.1496

Bond Coeffs # harmonic

1 1000 1.4246
2 1000 0.9451
3 1000 1.9842
4 1000 1.71581
5 1000 0.95053

Angle Coeffs # harmonic

1 1000 108.53
2 1000 106.368
3 1000 90.95

Dihedral Coeffs # quadratic

1 1000 180 
2 1000 180 
3 1000 180 

Atoms # full

392 112 5 0.2556 9.568156331757224 2.034994418613399 11.733166040466788 -1 1 1
433 123 4 0.44151 5.140808517232565 4.4747942484570356 9.14905331263362 0 0 0
2020 624 1 0.43128 5.230207985320326 1.7566041245652158 8.668306795805009 0 1 -1
526 150 4 0.44151 4.160793595412912 6.5164408738271 2.7698540122232673 -2 -2 1
431 123 5 0.2556 4.699901186920614 4.0888706359887195 7.036712920871688 0 0 0
1164 339 3 -0.67874 5.6908543076223586 10.238928251007973 9.724840332818957 -1 0 2
1100 318 2 0.24746 4.444650899456121 2.1393886763751695 2.982627411503821 2 1 1
514 146 1 0.43128 6.186355647171994 6.465217662161556 10.208238350678547 -1 2 0
440 125 3 -0.67874 0.8281977559339114 7.072305571610598 10.74557368256666 -2 1 0
2850 901 3 -0.67874 3.077003089437083 9.480050495239835 3.159670406783001 1 0 1
695 197 2 0.24746 8.641029234431743 8.805564092525518 11.942680935000054 0 0 -2
2985 946 3 -0.67874 8.754545602972208 2.7361835153403167 6.1293565521195434 1 1 1
87 25 1 0.43128 2.399722634173152 10.575834393825868 4.298849647528179 2 -4 1
1577 477 2 0.24746 10.000894201097617 5.4902317838714385 2.5275323515885413 2 1 3
393 112 7 -0.69711 10.421119566793125 2.857126715541178 12.974907601130894 -1 1 1
1906 586 1 0.43128 3.73201506071749 2.068973683717764 13.272026284056619 1 2 1
2543 799 2 0.24746 1.3303075827780813 4.335927085950752 3.03460479595428 -2 -2 1
209 60 4 0.44151 9.730372408570108 3.6394421136423314 14.292124661535725 1 2 1
1268 374 2 0.24746 9.120081108873768 10.83030666904788 4.515891889127568 -1 3 1
2544 799 3 -0.67874 1.690723076646168 5.134585549743378 4.1601403194786695 -2 -2 1
2558 804 2 0.24746 3.8078574774897653 7.4176735743559705 9.33517549881419 1 0 1
918 259 1 0.43128 1.2191419565360313 8.783108958629775 14.036203952529362 -2 0 2
1102 318 1 0.43128 6.209339272827214 2.316728251359028 2.160354275295602 2 1 1
696 197 3 -0.67874 7.391166787346413 8.281611420802838 11.500605227217372 0 0 -2
697 197 1 0.43128 6.993530374795261 8.91195307892374 10.900544498203757 0 0 -2
3122 992 2 0.24746 0.7303157619698437 1.2012013290102406 1.3238890784641824 3 0 0
441 125 1 0.43128 1.1247322963186277 7.373907985922289 11.605812007233189 -2 1 0
829 234 7 -0.69711 4.294553880045248 5.756064347853818 4.80499103484175 1 1 0
828 234 5 0.2556 3.8016781558471795 7.236451133044782 5.521409629445309 1 1 0
2390 748 2 0.24746 1.5556875688355654 11.035191930767658 10.524322666816765 -1 1 0
512 146 2 0.24746 7.493432332054162 5.022848189415341 10.058962282976715 -1 2 0
2559 804 3 -0.67874 5.188778775998758 7.761326941752344 9.233242613991257 1 0 1
2545 799 1 0.43128 0.9275573157718016 5.658541730735782 4.4173458261841105 -2 -2 1
394 112 4 0.44151 10.942644954989522 3.5372629211148374 12.537922815385075 -1 1 1
1163 339 2 0.24746 5.643725139838211 11.087688811054948 10.869200510621734 -1 0 2
525 150 7 -0.69711 3.8775629950155297 6.809381038483824 1.8977125375282378 -2 -2 1
831 234 6 0 5.687293766187847 7.714799545854266 5.9110635433875744 1 1 0
1121 325 2 0.24746 8.902083323249572 1.0757644422556107 1.9691661236890723 1 2 0
916 259 2 0.24746 2.9681316210449316 8.22873756468099 13.368037966939115 -2 0 2
1904 586 2 0.24746 4.012012610429539 3.811676851090499 12.440151218057185 1 2 1
885 250 5 0.2556 6.752698747229473 5.57583922884786 14.08962962414116 -1 1 1
513 146 3 -0.67874 6.27195162342211 5.574194268397637 10.546521149121387 -1 2 0
439 125 2 0.24746 0.9485363643618787 5.6517679442883315 10.698962490998817 -2 1 0
1905 586 3 -0.67874 3.2346862036172874 2.6443232080684647 12.693526679778843 1 2 1
233 67 3 -0.67874 10.903755225392441 10.89586455477628 13.334036534761522 -1 1 2
917 259 3 -0.67874 1.548788299003395 8.116562178813133 13.433366928408141 -2 0 2
830 234 4 0.44151 3.491051527957236 5.315392483044804 4.518745451627705 1 1 0
432 123 7 -0.69711 4.627140618575047 3.777710566481566 8.723722978375596 0 0 0
1276 376 1 0.43128 10.596474757358667 2.5205946844365053 6.857976356783024 0 -1 1
1165 339 1 0.43128 5.8555446933938455 10.780019560284444 8.952397619441262 -1 0 2
1578 477 3 -0.67874 10.050717979451589 4.193800889251638 1.936769547182751 2 1 3
2851 901 1 0.43128 3.1514142657123703 8.546803410583319 2.9568334788778263 1 0 1
1123 325 1 0.43128 8.494466473635272 2.9738544673083993 2.17671798901062 1 2 0
1688 514 2 0.24746 1.2277379475090373 2.216924057591865 9.736253312030177 0 -1 -1
434 123 6 0 3.576769605672311 2.496963067858352 6.659861035369848 0 0 0
886 250 7 -0.69711 6.251119662387118 7.212972082945169 13.976025811157873 -1 1 1
2849 901 2 0.24746 3.7617911770257675 10.217876064428667 2.1495647932451605 1 0 1
2560 804 1 0.43128 5.273426335810519 8.71174190731252 9.342694135504283 1 0 1
2984 946 2 0.24746 8.046943370414159 3.475893880609349 5.13693299863231 1 1 1
85 25 2 0.24746 1.9855639813322266 10.548023082325498 6.203144524398861 2 -4 1
86 25 3 -0.67874 2.116663589386984 11.212249642761485 4.949859775381379 2 -4 1
2986 946 1 0.43128 8.229586383233594 1.972809001279595 6.3703776775305005 1 1 1
1122 325 3 -0.67874 7.9955452318685065 2.1568958943905105 2.1707385111855357 1 2 0
3110 988 2 0.24746 10.751522869420803 5.835127253650189 11.72478032409996 0 -1 0
1101 318 3 -0.67874 5.302949380166556 2.4949170218492185 1.9001870349524306 2 1 1
887 250 4 0.44151 6.557461861994588 7.530067919678211 13.119107601652008 -1 1 1
785 222 2 0.24746 7.172909288147188 8.172443912374106 2.4781333818978304 1 -1 -1
1579 477 1 0.43128 10.92152110112246 3.8227463480774895 2.0919196944358727 2 1 3
787 222 1 0.43128 7.778678320194865 9.438164765483567 1.125116304194555 1 -1 -1
786 222 3 -0.67874 8.18756193794694 8.917335085101367 1.8102341402869189 1 -1 -1
1684 512 1 0.43128 5.275217654124818 6.399846543640342 27.1073335080389 0 0 1
1890 581 3 -0.67874 4.149425624336072 7.356458344759581 22.077148654685594 1 0 -1
294 84 4 0.44151 6.307810538567039 8.847138697466825 20.3345224086293 0 1 0
435 124 5 0.2556 9.698011917861626 5.611665515129623 27.521719432737225 1 -2 0
78 23 5 0.2556 3.0623128447190444 2.512990266796738 24.717987236269714 0 1 -1
1889 581 2 0.24746 4.377851463886648 7.889843257994973 23.378929351362835 1 0 -1
299 85 6 0 5.0383263555235605 2.4663129964193224 20.51331834138328 0 1 -1
207 60 5 0.2556 10.143629207692669 3.3011695940485586 16.416489153508387 1 2 1
1648 500 1 0.43128 8.927914526479226 2.5188367590500764 26.809194031885276 0 0 0
293 84 7 -0.69711 5.3627881087244225 8.979818115267511 20.459792411574046 0 1 0
158 45 1 0.43128 7.257966615227539 8.150692892999064 26.093586068514977 1 -1 -1
208 60 7 -0.69711 9.324420967545406 4.0069458749009295 15.083816898387107 1 2 1
2848 900 1 0.43128 9.658951837088278 5.9835555754984675 15.638662844403509 1 0 0
298 85 4 0.44151 4.379912680749713 5.636251178428388 21.941810108238638 0 1 -1
1709 521 2 0.24746 4.91949482380117 8.850836746556364 16.799235512233178 1 1 -1
81 23 6 0 3.882627968869262 1.0631465243710165 25.79498096145171 0 1 -1
1710 521 3 -0.67874 6.004281722681527 9.067354450155626 15.901665151982394 1 1 -1
2874 909 3 -0.67874 7.853055600534115 10.538902422433756 17.378936006216602 3 -1 2
689 195 3 -0.67874 7.9304922694057405 8.851851751016444 19.62820176429084 0 1 0
230 66 3 -0.67874 1.655425112907217 4.1037073263814925 16.400145903658714 0 -1 0
888 250 6 0 5.936274346541907 5.415691920139368 15.890614804225924 -1 1 1
492 140 2 0.24746 8.188803452208894 7.554601321816978 23.844276244977454 2 1 1
1646 500 2 0.24746 7.999667990609477 1.2087816548214116 27.918450202911743 0 0 0
1682 512 2 0.24746 5.576796357399474 4.4736398529846575 27.009530641850937 0 0 1
2397 750 3 -0.67874 1.0040403139050806 3.8021704336778472 28.192033565220537 1 0 1
1891 581 1 0.43128 4.599900007980416 7.910800662412038 21.438448396735357 1 0 -1
2117 657 2 0.24746 10.894306079887253 1.0292028055945264 25.18473552370632 -1 0 -2
79 23 7 -0.69711 4.514453950087158 2.7101980171317566 23.82435144539124 0 1 -1
80 23 4 0.44151 4.34689030365473 3.4152150586883363 23.18994072641574 0 1 -1
156 45 2 0.24746 5.85482227080471 9.139676395916826 27.02418978359625 1 -1 -1
296 85 5 0.2556 5.272800932634793 4.429504869623275 20.349434401218172 0 1 -1
690 195 1 0.43128 8.26997483451667 9.649770497610591 19.224246589584343 0 1 0
1647 500 3 -0.67874 8.612782911748367 2.479504931932757 27.709137917490562 0 0 0
295 84 6 0 3.146981537484873 10.417571847377584 20.616623980917684 0 1 0
292 84 5 0.2556 5.089125019125591 10.666080968354416 20.295392910631232 0 1 0
1823 559 2 0.24746 1.5379689099493665 9.689839197615612 26.918340942099327 0 0 1
436 124 7 -0.69711 10.532382728125231 4.3665704023263014 28.357751407348886 1 -2 0
2118 657 3 -0.67874 10.540932290780841 2.3053377962483195 25.712834234452863 -1 0 -2
2875 909 1 0.43128 7.224426360612152 10.046612382254377 16.855612617973804 3 -1 2
494 140 1 0.43128 8.187328133892276 9.451889277566424 24.303506074521216 2 1 1
2398 750 1 0.43128 1.2572708709717857 4.603854079422666 27.732544442338174 1 0 1
2062 638 1 0.43128 6.201965304760114 2.8801476644501776 24.10585247511366 2 1 2
2873 909 2 0.24746 8.670102103824615 11.307180391531434 16.498843993886 3 -1 2
229 66 2 0.24746 1.2547279041526596 3.0242348036714417 17.240955347757875 0 -1 0
297 85 7 -0.69711 4.3989543855906295 4.686189514060475 21.804504934736954 0 1 -1
1926 593 3 -0.67874 7.564270862591978 11.12632687597713 23.60481391275495 1 2 0
680 192 6 0 1.0300356764044742 4.6968369936386285 21.880067562787367 0 2 0
2612 822 2 0.24746 1.8702191430462949 6.202273611362579 25.453384851593594 1 1 -2
157 45 3 -0.67874 6.444352943112097 7.932425434290074 26.549426090979253 1 -1 -1
688 195 2 0.24746 9.000231178978082 7.917279601901317 19.751162134480705 0 1 0
210 60 6 0 9.01188009004833 4.314451169216335 17.692046020163648 1 2 1
493 140 3 -0.67874 8.40673205496267 8.634026143009702 24.749563159671734 2 1 1
1683 512 3 -0.67874 4.747544701922226 5.611035654907701 27.23431000312043 0 0 1
2119 657 1 0.43128 10.888774398232892 2.979519164143714 25.13193421893775 -1 0 -2
2613 822 3 -0.67874 2.164663267676117 5.908634477211205 26.816233770690587 1 1 -2
231 66 1 0.43128 1.180715796509788 4.034801422690322 15.57143693305209 0 -1 0
2846 900 2 0.24746 9.422994486769468 7.920726441593497 15.636321866768562 1 0 0
677 192 5 0.2556 1.4346383152719588 6.0163853397459865 20.454935026520566 0 2 0
2614 822 1 0.43128 3.0267609985908495 5.497996742260156 26.858385443027604 1 1 -2
437 124 4 0.44151 9.920389053376228 3.628513948887359 28.422512423823683 1 -2 0
2061 638 3 -0.67874 7.128948297876356 2.7101474178924194 24.291986455264045 2 1 2
2060 638 2 0.24746 7.869499524866868 3.8961245610743935 24.015359538280865 2 1 2
1711 521 1 0.43128 6.003296060654717 8.364538881484687 15.249600835997203 1 1 -1
1934 596 2 0.24746 0.9406955486363326 10.92538104816577 17.870138880994272 0 1 -1
2847 900 3 -0.67874 10.17780165331843 6.741498900675204 15.90411041041823 1 0 0
1141 331 1 0.43128 8.278375664200517 4.811368881797801 37.3100648410056 -1 1 0
2941 931 1 0.43128 1.6537297917255454 9.681708018083988 38.68947655874843 2 1 -2
1140 331 3 -0.67874 8.766078095386895 5.392180339049311 37.898435069686855 -1 1 0
955 270 7 -0.69711 8.110205741155017 1.222720655394003 35.53714180984503 -1 0 -1
1355 403 2 0.24746 8.901233023325263 1.4858628020203364 39.54999354464902 2 -2 -2
2940 931 3 -0.67874 1.3886291837382978 9.150327898787902 39.4351111541899 2 1 -2
1982 612 2 0.24746 6.175879418738412 4.342803544165582 35.629544088681676 0 0 -2
2585 813 2 0.24746 3.7199830632688973 8.365903328093873 30.19937414191761 1 -1 -2
2052 635 3 -0.67874 8.162497787785746 2.1819946751856985 32.09890589667881 0 1 0
312 89 3 -0.67874 2.218227477375102 9.969125686500238 37.015721059428245 1 -1 1
2530 794 1 0.43128 3.0676869574277505 1.157400037660518 33.235206385569654 -1 2 -1
2051 635 2 0.24746 8.87262110239717 3.38063616054665 31.79888672787181 0 1 0
2981 945 2 0.24746 6.652461063708776 10.317241545099186 39.89963761085074 1 -1 0
2587 813 1 0.43128 4.00830012649439 9.199231279400253 31.944533688143053 1 -1 -2
2290 714 1 0.43128 6.224324736690201 8.202096085693366 32.411021808971725 -2 -1 -1
2362 738 1 0.43128 9.943173590184095 7.248174605570833 34.26429839705929 2 1 1
667 189 4 0.44151 4.288767021428848 2.798631062766741 41.95782936578296 2 -1 2
753 213 4 0.44151 0.9320159539160655 5.553316888162004 36.59618075403767 -2 -1 -1
2288 714 2 0.24746 5.680130308075205 8.32392078566948 34.28098070873028 -2 -1 -1
971 275 2 0.24746 5.051755268400705 3.7914114411478117 31.445836404144845 0 1 -1
2402 752 2 0.24746 10.10285460879015 8.173578434065913 36.61936390832181 1 0 -2
973 275 1 0.43128 4.978707070254186 2.615269366813479 33.000066297097945 0 1 -1
751 213 5 0.2556 2.6352639974170113 6.411569874435898 35.518230022224266 -2 -1 -1
527 150 6 0 3.831170939856813 6.758288563791396 40.514775770498574 -2 -2 0
868 245 4 0.44151 2.2285205820545038 10.690747545577356 31.138304431962755 1 0 1
2403 752 3 -0.67874 9.900943015276509 6.975473328639661 35.87376238662687 1 0 -2
2586 813 3 -0.67874 3.447397567137599 9.362893234313267 31.18212127630168 1 -1 -2
666 189 7 -0.69711 3.6565483093647413 2.812689489885666 41.236181442362344 2 -1 2
2528 794 2 0.24746 3.0950898089466916 2.196509685837177 34.88617367639915 -1 2 -1
2361 738 3 -0.67874 9.965105702376322 7.4250433370405995 33.32652400393024 2 1 1
752 213 7 -0.69711 1.2959826438666389 5.357161944544445 35.72682006457888 -2 -1 -1
1119 324 3 -0.67874 7.580890757288994 7.943079930482584 31.624471614774396 0 1 0
1178 344 2 0.24746 11.016208678585611 9.779872764153714 30.153229768325037 -1 0 1
665 189 5 0.2556 4.517681773681862 3.3517743177318247 39.853334857324356 2 -1 2
615 176 5 0.2556 8.448166738847922 11.271837450075763 33.40658312944837 -1 1 0
2529 794 3 -0.67874 3.597388191235882 1.8672518107395821 33.59338561410758 -1 2 -1
2396 750 2 0.24746 2.0480953117253042 3.4536400661368574 29.098830564678135 1 0 1
2289 714 3 -0.67874 5.420159208132609 8.409520525532876 32.88111910118092 -2 -1 -1
1120 324 1 0.43128 8.364366779761639 7.824019916191821 32.162554130689045 0 1 0
1139 331 2 0.24746 8.112790275243926 5.400000571729842 39.1666159143045 -1 1 0
754 213 6 0 2.992731810025074 5.656991602903808 33.71865302733881 -2 -1 -1
2404 752 1 0.43128 9.528751455017447 6.315771113171702 36.45639730818136 1 0 -2
2053 635 1 0.43128 7.224288158962306 2.363314680961965 32.04273310065461 0 1 0
668 189 6 0 2.8821266447438263 3.2102167852459007 38.73969749788395 2 -1 2
1118 324 2 0.24746 7.781536460167847 7.273030197901001 30.382237479180883 0 1 0
2982 945 3 -0.67874 6.299103427424249 10.684829315367256 41.23045452820318 1 -1 0
144 41 6 0 0.9224521815942408 6.316256105853349 30.887941310421372 -1 0 -2
1983 612 3 -0.67874 7.452916620814853 3.9739547986104315 36.14502386665411 0 0 -2
524 150 5 0.2556 4.700234723265972 5.814274173800854 42.02689785849863 -2 -2 0
3123 992 3 -0.67874 1.0710222334396708 2.048245643311426 41.4887219232161 3 0 -1
956 270 4 0.44151 8.828982146987903 1.1272717657962659 34.906654730406956 -1 0 -1
313 89 1 0.43128 2.1492311123042027 10.102332463712518 36.06967467114112 1 -1 1
972 275 3 -0.67874 5.652399166358278 2.9102387282992983 32.38985601306936 0 1 -1
311 89 2 0.24746 3.5957244395520025 9.819846321613642 37.35128853788661 1 -1 1
1984 612 1 0.43128 7.563720174909473 3.0322011556942585 36.03224673303606 0 0 -2
3124 992 1 0.43128 2.021918110368773 2.1596073337731925 41.47651434963796 3 0 -1
2360 738 2 0.24746 10.985217606548328 6.621300675606718 32.740839214602076 2 1 1
2983 945 1 0.43128 5.566064555006254 11.301932530555481 41.19007289158601 1 -1 0
2939 931 2 0.24746 1.0398605856742635 10.020634290589093 40.50851786305607 2 1 -2
2719 857 1 0.43128 0.6881783180306433 7.227588618468414 38.5336513337692 3 -1 2
2318 724 2 0.24746 2.39347784262666 20.50265975233568 2.7609884710262844 1 0 1
2022 625 3 -0.67874 6.643642071099414 11.57877793822292 7.57586197133757 -1 -1 1
2327 727 2 0.24746 5.093649075441699 13.846452795309025 3.1327709015685192 1 0 0
1514 456 2 0.24746 2.2415071156554696 18.374148077670792 10.780250919543038 -1 0 0
1504 452 1 0.43128 10.162131587770405 16.932658573548476 9.978528657436817 -1 0 0
1270 374 1 0.43128 8.212927619361913 12.52196451114327 4.875580023553659 -1 3 1
2325 726 3 -0.67874 8.218333291398677 14.13223298546939 4.69567540476773 -1 1 3
1516 456 1 0.43128 3.417369022730251 18.661654273308876 9.249453575777336 -1 0 0
1023 292 3 -0.67874 8.155492502304018 15.337148426885875 12.164059060081016 1 -1 0
2745 866 3 -0.67874 8.416606328620471 17.438422276261566 13.7632676699867 0 1 -2
509 145 7 -0.69711 1.109180110018844 19.77500623857369 14.295840133173565 -2 0 -2
1049 301 2 0.24746 4.189166566617638 14.458558711705297 10.458830286380403 1 -1 -2
2014 622 1 0.43128 3.3086264933527656 15.813451509486153 5.8405822990803316 1 2 0
1503 452 3 -0.67874 9.597150999033614 16.16425803212283 10.076506166312575 -1 0 0
1050 301 3 -0.67874 3.8077780553860516 13.606626608343365 11.536104919423437 1 -1 -2
2319 724 3 -0.67874 2.981524409970696 20.60755632492968 1.466850105058639 1 0 1
2392 748 1 0.43128 1.2978712864623816 12.729832495238291 9.589379847843333 -1 1 0
1872 575 3 -0.67874 9.68162902178867 19.453527466140926 12.809332902670327 1 -1 0
1480 444 1 0.43128 4.022228322160016 19.10837823737052 1.1473919531434762 1 0 -1
1022 292 2 0.24746 8.143169179623332 13.925447611172288 12.361833183201817 1 -1 0
2012 622 2 0.24746 4.225853979926414 17.525733457536035 5.6619743880794635 1 2 0
1317 390 3 -0.67874 10.337390249443473 20.420490198228816 4.22414747540061 4 -1 1
2324 726 2 0.24746 9.189739908002478 14.893723191054919 3.983140669163949 -1 1 3
862 243 1 0.43128 10.061009464814635 20.16084503102561 5.898976710467698 1 -3 -1
3148 1000 1 0.43128 1.2527769653040912 21.15061516505859 12.807666376814533 2 0 0
2328 727 3 -0.67874 5.863293535128992 14.735465557443247 3.939799648229622 1 0 0
861 243 3 -0.67874 9.850544273821251 20.002649685549184 6.81928258193932 1 -3 -1
1471 441 1 0.43128 0.9504626552933463 12.63222641271244 4.654998236815211 1 0 -1
2021 625 2 0.24746 6.0626105418081275 12.864888801294159 7.37679898719842 -1 -1 1
2013 622 3 -0.67874 4.088187731768892 16.133678827075208 5.391819615605743 1 2 0
810 229 5 0.2556 6.229689408624163 19.315422380884016 9.90245818839405 0 0 -1
1515 456 3 -0.67874 2.5953271925713186 18.202330161746712 9.40978006453781 -1 0 0
1478 444 2 0.24746 5.1095191925353625 17.747107759644926 2.0253715705231414 1 0 -1
860 243 2 0.24746 9.540687306211705 18.619800846340656 6.979104252505166 1 -3 -1
1871 575 2 0.24746 10.495353946035586 20.20056532255995 13.710209480895797 1 -1 0
2326 726 1 0.43128 7.346333735180566 14.418069603545494 4.4196794745707475 -1 1 3
1051 301 1 0.43128 3.2055735524213493 12.945461468570091 11.201107593355191 1 -1 -2
1502 452 2 0.24746 9.57276582966957 15.460345264440909 8.835820241040818 -1 0 0
812 229 4 0.44151 4.61363540469576 20.63560553022437 9.236222549028465 0 0 -1
457 130 3 -0.67874 3.82051536864889 13.950507140445062 14.252005119336696 -1 3 1
2329 727 1 0.43128 5.264969277203779 15.253016104332698 4.474551084892539 1 0 0
2391 748 3 -0.67874 1.9632523639715007 12.353134646563785 10.165746976456447 -1 1 0
811 229 7 -0.69711 4.873845393618316 19.756501621233834 8.94460823267842 0 0 -1
1894 582 1 0.43128 1.239742516391939 15.821643665752019 6.455967884761296 -1 0 1
1024 292 1 0.43128 8.562890442099746 15.520985235502096 11.31705578189528 1 -1 0
281 80 6 0 10.04710104046735 18.257687557977697 1.4749612074684157 -2 2 0
2790 881 3 -0.67874 7.947255132111223 20.05008648724438 3.527603205096386 0 1 0
1296 383 3 -0.67874 0.8417864686476282 12.690322364671825 1.54149565369377 -3 0 -2
3147 1000 3 -0.67874 1.3804244012690543 21.368430373840905 11.884268294739401 2 0 0
1893 582 3 -0.67874 1.9239324886740556 15.183656846176346 6.248229098117459 -1 0 1
2791 881 1 0.43128 7.792916959456265 20.57503972424872 2.741516135396207 0 1 0
1923 592 3 -0.67874 11.050540923747434 18.3760389254319 10.666331960556263 0 -1 0
458 130 1 0.43128 3.862311640164735 13.851847870013348 13.300940017883633 -1 3 1
2789 881 2 0.24746 7.096215455764934 20.53056510874518 4.564848388935362 0 1 0
1318 390 1 0.43128 9.462907622873407 20.277608026517726 3.859388350870327 4 -1 1
1892 582 2 0.24746 2.1203654855835263 14.346780242411635 7.38564908422796 -1 0 1
744 211 5 0.2556 0.7223507147957609 16.942771378230546 3.647563293383409 0 0 0
1509 454 3 -0.67874 3.713159415518339 16.6220454070419 14.29594189899475 2 1 0
813 229 6 0 6.360040593800872 17.56750031655744 8.973465664479106 0 0 -1
481 137 5 0.2556 9.22674839330533 21.375999407682624 10.224090090753721 0 1 0
1873 575 1 0.43128 9.142414199772235 18.85126917954838 13.317626582463713 1 -1 0
1508 454 2 0.24746 5.066161604842574 16.89296977396772 13.935820442047527 2 1 0
2746 866 1 0.43128 8.316310514181318 16.63454594953532 13.272360590727518 0 1 -2
510 145 4 0.44151 0.8799408850800592 18.84919152565559 14.186684013805932 -2 0 -2
1267 373 1 0.43128 1.935340072609213 16.744197597961097 13.998843133197708 0 0 -1
1266 373 3 -0.67874 1.044871658747449 16.922275798802538 13.703482343857246 0 0 -1
1924 592 1 0.43128 10.540119022457835 18.922236164162562 11.26053407044041 0 -1 0
2199 684 3 -0.67874 3.89394514449036 21.53741661502732 10.833978512892164 2 -1 -2
2040 631 3 -0.67874 7.8134779611156135 21.505402187753287 1.308171564838576 1 2 -2
2320 724 1 0.43128 3.1194393481010856 21.53455666512697 1.27085475661324 1 0 1
1510 454 1 0.43128 3.6075941450749855 15.672422169915958 14.388128735517583 2 1 0
1269 374 3 -0.67874 8.176495016765712 11.630303731865366 5.2242074465732555 -1 3 1
1316 390 2 0.24746 11.011139931942587 21.382575426276325 3.416954063833343 4 -1 1
2200 684 1 0.43128 2.9818282331370334 21.41890992669849 11.099569811755552 2 -1 -2
483 137 4 0.44151 9.256942994167694 21.08273739872636 8.055554474301964 0 1 0
1210 354 1 0.43128 1.0987710766710448 17.532659253612604 7.7632920218941015 -1 1 0
2023 625 1 0.43128 7.2390364270069885 11.399751159531483 6.850001466655733 -1 -1 1
1295 383 2 0.24746 0.695497074697556 14.003004736919754 1.0033642300378176 -3 0 -2
1419 424 3 -0.67874 2.87356007196612 18.222428481071034 24.10916973446471 0 1 1
1418 424 2 0.24746 1.5985582385419408 17.58468141356638 24.095265603428157 0 1 1
1667 507 2 0.24746 9.461407452976108 17.55258426956421 19.039275883441263 1 0 -2
2105 653 2 0.24746 5.348072613459967 19.06292689669587 17.40182944381754 2 1 -1
1420 424 1 0.43128 2.9449262431280756 18.73954006780033 24.911431127716614 0 1 1
2259 704 3 -0.67874 7.726169550751349 13.778562519078074 20.730517593325523 1 0 -1
1668 507 3 -0.67874 8.058461131097197 17.668708253388786 18.811365199702838 1 0 -2
213 61 4 0.44151 7.5219248034224915 18.12840216712062 27.27344338534261 -2 1 -1
1909 587 1 0.43128 8.672523126187569 19.125986349589763 23.58011565263275 -1 2 1
1006 286 1 0.43128 6.787185241584835 14.627451596386543 19.587828291685593 -1 0 0
1336 396 1 0.43128 8.098516393506173 20.979330591766985 22.546791168946363 0 0 0
2107 653 1 0.43128 7.048342648483516 18.885951056519442 18.351079116901214 2 1 -1
1093 315 1 0.43128 7.559282469787282 20.516525783811556 16.957889457071587 -1 1 -2
212 61 7 -0.69711 7.379905117629154 17.434458382216246 26.619504112113493 -2 1 -1
508 145 5 0.2556 2.7239911843396283 19.8023371867604 14.878146919284228 -2 0 -2
1445 433 2 0.24746 10.027836263818406 15.447480212113888 23.370538595047364 1 -1 -1
1802 552 2 0.24746 4.551780729930149 14.724844478741563 21.852154635072832 1 0 0
2628 827 3 -0.67874 10.162124567054395 21.698979881590407 27.65475518405366 1 0 1
987 280 3 -0.67874 3.155325618712437 19.276465847930996 27.02654335934914 -1 3 0
1978 610 1 0.43128 4.824808713183837 13.00204888257603 23.904040135598287 -1 1 0
2929 927 1 0.43128 8.882189211728111 20.28568710630332 28.47024467561342 1 -2 1
2990 948 2 0.24746 10.803349322569787 14.226396783283995 28.33143880302457 0 -1 0
1388 414 2 0.24746 6.443259926012877 18.025202823574293 23.387069308247693 0 -1 -1
1335 396 3 -0.67874 7.736508026445684 21.620243026181246 21.934216004238184 0 0 0
872 246 1 0.43128 2.0699530304630387 17.809045764455327 26.970739352114645 1 0 2
1390 414 1 0.43128 7.611213870095255 17.68950399607569 24.913545345714756 0 -1 -1
986 280 2 0.24746 4.521207932064756 18.869494439340013 27.05643396979944 -1 3 0
1908 587 3 -0.67874 9.247132594277101 19.873979727321874 23.4124439133857 -1 2 1
2744 866 2 0.24746 9.112797808627718 17.145024309329607 14.97265549843439 0 1 -2
1976 610 2 0.24746 3.676996157817425 11.430510574445842 24.09302039898512 -1 1 0
626 178 6 0 4.36250214267619 12.25776661552822 28.45582977061083 0 1 0
871 246 3 -0.67874 1.7664178317809536 16.908231366946982 27.067514684421862 1 0 2
211 61 5 0.2556 7.364121659940327 15.954131315154227 27.487872811326966 -2 1 -1
214 61 6 0 7.0651772137746 14.935736144029647 25.811750850313327 -2 1 -1
1804 552 1 0.43128 6.178740694776323 13.646469372241864 21.8084952991263 1 0 0
1925 593 2 0.24746 8.53915954684264 12.051856404512396 24.07858633316436 1 2 0
703 199 4 0.44151 5.056295965053912 21.37169950091672 18.300995791524958 0 0 -1
1803 552 3 -0.67874 5.494061326125006 13.837037636918167 22.44914348239061 1 0 0
2798 884 2 0.24746 1.345396187191016 13.710681262620895 25.95403317964317 0 2 1
456 130 2 0.24746 4.676275187658402 12.974331351342137 14.844042014339804 -1 3 1
1389 414 3 -0.67874 7.721985913491363 17.785289271845947 23.96905408005559 0 -1 -1
2106 653 3 -0.67874 6.522716847626481 19.608466337807286 17.99932297337966 2 1 -1
1092 315 3 -0.67874 8.29342957882466 20.960929811152486 16.531342919745747 -1 1 -2
1005 286 3 -0.67874 6.4947411305723834 15.406961674226418 19.11357543770221 -1 0 0
1004 286 2 0.24746 6.08634288214279 15.012355054925704 17.805511748465673 -1 0 0
1447 433 1 0.43128 8.424373949357364 16.34685567498665 22.7137854629721 1 -1 -1
1669 507 1 0.43128 7.614873602014248 16.958380445209993 19.280778355533048 1 0 -2
1907 587 2 0.24746 10.537454418853564 19.381237008870812 23.058336362949117 -1 2 1
2627 827 2 0.24746 10.027583059901641 21.663892170948056 26.235604543906756 1 0 1
870 246 2 0.24746 2.0784593221329155 16.465857471543536 28.38652924805412 1 0 2
1977 610 3 -0.67874 4.902950329676206 12.130792323695129 24.299153028925055 -1 1 0
1397 417 2 0.24746 1.2355267353567494 18.054183258483327 18.572614093642077 -1 0 0
2258 704 2 0.24746 8.52034722918517 12.596941508250154 20.664142224269685 1 0 -1
2260 704 1 0.43128 8.189822299224915 14.426237621671902 21.26191582922302 1 0 -1
1927 593 1 0.43128 6.739751855724722 11.595208091096039 23.473772485098827 1 2 0
1091 315 2 0.24746 9.388634508628963 20.999197147750838 17.442865304010112 -1 1 -2
988 280 1 0.43128 3.016575149391656 19.921360235628608 27.72064190328675 -1 3 0
1446 433 3 -0.67874 8.866295887842595 15.514665738639533 22.546193764203817 1 -1 -1
278 80 5 0.2556 9.116522991049301 17.40219192967472 41.20531684645659 -2 2 -1
2601 818 3 -0.67874 1.9096707240932362 16.12039637734519 36.08405826802435 0 -2 -2
280 80 4 0.44151 10.295427595797596 17.1715853049274 39.372971016244946 -2 2 -1
1966 606 1 0.43128 8.768750167296444 13.473370439106521 31.306353949894447 2 0 0
2155 669 1 0.43128 9.518716645171308 15.643603571924205 35.385701038721 -1 2 -1
3020 958 2 0.24746 5.831518807933998 16.768075179748188 38.86571169590755 3 -1 -1
2816 890 2 0.24746 6.930323478104035 20.909861557525616 31.23053938224826 0 0 -2
1964 606 2 0.24746 8.137115717128562 15.230525928094291 31.87092050342776 2 0 0
3056 970 2 0.24746 5.688529782865591 20.20184764904199 36.25570390077679 0 1 1
2144 666 2 0.24746 10.292685609296583 18.634930109688636 33.115925826489516 -1 -1 -1
2154 669 3 -0.67874 10.457618264254664 15.53065944560054 35.52938488213139 -1 2 -1
2039 631 2 0.24746 7.2325917605450964 20.96809351959832 41.381896404013105 1 2 -3
1479 444 3 -0.67874 4.468736129488988 18.30619882138673 42.14223319307659 1 0 -2
2704 852 1 0.43128 2.194891444406515 11.399182885285112 33.09249350763069 2 1 1
2145 666 3 -0.67874 8.897361869478399 18.875918011390567 33.29338443114977 -1 -1 -1
2185 679 1 0.43128 8.089644704903776 12.904248725912154 36.21698559076138 0 2 3
1965 606 3 -0.67874 8.436179890456685 14.25702492992633 30.873285164567086 2 0 0
2600 818 2 0.24746 2.102422299791848 15.629198320929797 37.40832421936928 0 -2 -2
1587 480 3 -0.67874 2.7278525634366586 20.343366189413874 29.97625918028838 -1 -1 -1
3021 958 3 -0.67874 6.8078252059305555 15.7491974204297 38.66631120280187 3 -1 -1
2146 666 1 0.43128 8.62925583125935 18.50167413814306 34.13562531948765 -1 -1 -1
2602 818 1 0.43128 1.5989461765886581 17.023038859149786 36.13807543662922 0 -2 -2
1755 536 3 -0.67874 4.227838721184135 12.58771068286827 41.23709877564121 1 -1 -1
2166 673 3 -0.67874 9.454616958904909 12.717043819156709 37.61115805995312 -1 -1 -1
2425 759 1 0.43128 4.187398396627932 17.862945387373056 31.81871289513715 0 -1 2
3057 970 3 -0.67874 6.978494456568483 20.149021432096017 35.65114563113091 0 1 1
624 178 7 -0.69711 6.1759286937546305 13.636543816452042 29.800296957793226 0 1 0
217 62 4 0.44151 7.784651432154843 14.798304432294913 39.62602289783161 -2 0 0
1844 566 2 0.24746 9.516347780357863 17.966999835520397 37.22951030604967 -1 -1 1
2165 673 2 0.24746 10.386224122085098 11.802473146147959 38.18412535902949 -1 -1 -1
1636 496 1 0.43128 5.075940051714699 15.087964980193696 30.97609013249096 0 1 -1