LAMMPS data file via write_data, version 29 Aug 2024, timestep = 1000000, units = real

3229 atoms
7 atom types
2229 bonds
5 bond types
1229 angles
3 angle types
687 dihedrals
3 dihedral types

0.33894715123688 43.2677028487351 xlo xhi
0.6766856762999716 42.86501432368706 ylo yhi
0.7720602267621466 42.4707497732217 zlo zhi

Masses

1 1.008
2 15.011
3 15.999
4 1.008
5 14.011
6 15.011
7 15.999

Pair Coeffs # lj/cut/coul/long

1 0 0.4
2 0.239639 3.7543
3 0.174632 3.03
4 0 0.4
5 0.171477 3.4612
6 0.238761 3.6072
7 0.169017 3.1496

Bond Coeffs # harmonic

1 1000 1.4246
2 1000 0.9451
3 1000 1.9842
4 1000 1.71581
5 1000 0.95053

Angle Coeffs # harmonic

1 1000 108.53
2 1000 106.368
3 1000 90.95

Dihedral Coeffs # quadratic

1 1000 180 
2 1000 180 
3 1000 180 

Atoms # full

795 226 2 0.24746 2.818900925344061 8.715412205946734 13.731159955913165 1 1 1
1510 429 3 -0.67874 2.512224207146862 5.561222802473592 5.4850364549710395 -1 0 2
1110 315 4 0.44151 3.9613015035282335 1.0252843293358191 11.335473739166385 1 2 1
1111 315 6 0 4.058571623974392 3.7076646427925533 13.644968939482835 1 2 1
2302 691 1 0.43128 11.007077914192307 4.29032456021275 10.23034508650082 0 1 0
690 195 7 -0.69711 8.0004744918024 7.609858126407107 8.815457949132103 0 1 0
2254 675 1 0.43128 1.8677765169373208 5.25923645647029 3.778732024772808 1 1 -2
2799 857 3 -0.67874 3.459889902174694 10.087675992972057 6.85702685198704 0 1 0
2154 642 3 -0.67874 8.830367173267849 8.861010790845073 12.991278463579953 0 1 1
2252 675 2 0.24746 2.083221570722788 5.901935516819276 1.9467284823690851 1 1 -2
2945 906 2 0.24746 5.055658503098308 3.618975184450273 7.822539003627738 2 -1 -1
2521 764 1 0.43128 8.005949345819499 10.03193868864077 4.7145180453281785 -2 0 -1
1440 409 7 -0.69711 4.8422828462359515 6.705439450855567 9.56311055901447 1 0 1
2564 779 2 0.24746 8.573294995942906 1.6094857991978961 5.047610505211997 1 2 2
2230 667 1 0.43128 6.6737688114812705 3.906791103242703 4.468907136315082 2 2 0
2565 779 3 -0.67874 8.40627717069151 2.9647635031466604 4.638724129364402 1 2 2
2798 857 2 0.24746 4.569589933470187 9.939041276132018 5.9720947287864625 0 1 0
1439 409 5 0.2556 4.997111813335347 8.230629573228704 8.79002968146678 1 0 1
2289 687 3 -0.67874 7.024600663043375 1.9369009060641273 12.333434518800567 0 1 2
1236 351 1 0.43128 8.079782924422108 10.447022321508705 13.277150131954436 -1 0 1
2519 764 2 0.24746 8.994023852833545 8.680090722008627 3.7098227590019346 -2 0 -1
1741 504 1 0.43128 10.79666181518799 5.236573705995938 6.165673510315007 -1 -1 0
2947 906 1 0.43128 5.614593146022465 5.005694858692102 6.566678548106344 2 -1 -1
1740 504 3 -0.67874 10.043207224248222 4.662834041086684 6.035609505937743 -1 -1 0
1109 315 7 -0.69711 4.088218765955544 1.52439233837406 12.147882600393597 1 2 1
1511 429 1 0.43128 3.2073576359075813 5.05561204727282 5.901879699315968 -1 0 2
2253 675 3 -0.67874 1.375267386647348 5.190776482802823 2.9588584099440602 1 1 -2
1509 429 2 0.24746 2.3247289679016925 6.765261212621426 6.223054778486398 -1 0 2
689 195 5 0.2556 8.627217551393725 9.028319998411941 8.081269987629323 0 1 0
2459 744 2 0.24746 4.231649285799171 1.413918303998666 4.11060053398949 1 0 2
691 195 4 0.44151 7.518828987112322 7.141892521710592 8.129501776695431 0 1 0
2520 764 3 -0.67874 7.956933522303575 9.081907732730967 4.600592535671252 -2 0 -1
2290 687 1 0.43128 6.073782909209042 1.923620242285355 12.451191430720288 0 1 2
2946 906 3 -0.67874 5.423193863269239 4.958865604641391 7.503635764253781 2 -1 -1
3072 948 3 -0.67874 6.364766012264782 1.2704376836208338 0.9235144277998363 2 1 0
3127 966 1 0.43128 9.610187258842611 6.296500401135469 9.73686462521583 1 1 1
2229 667 3 -0.67874 6.03727394627198 4.556561360034456 4.771343628481645 2 2 0
1442 409 6 0 4.960915702127993 9.16029617717833 10.542177969833979 1 0 1
393 111 6 0 1.2946638365254075 5.943492063032966 10.318816856027341 -2 0 -1
692 195 6 0 9.463908909479795 9.583805665603194 9.792235869954979 0 1 0
1486 422 2 0.24746 6.774390050860932 6.094085962645437 14.554355745305937 1 0 1
2566 779 1 0.43128 8.926270118541764 3.523477602432388 5.2189054684196465 1 2 2
390 111 5 0.2556 0.8012697542129641 6.092745922226323 12.234055251104 -2 0 -1
2228 667 2 0.24746 6.035472813798328 5.647195183089418 3.854526625363115 2 2 0
905 257 6 0 1.4616339934018032 1.3565249020191632 7.706257131418239 0 0 0
1441 409 4 0.44151 4.8361528543750225 6.045940108443881 8.859023862029812 1 0 1
1354 385 1 0.43128 2.0472518925749736 9.441766724555114 7.867152998338555 2 -1 2
1353 385 3 -0.67874 1.3399983973600669 9.138188642880946 8.437952755723582 2 -1 2
3126 966 3 -0.67874 9.744278421413615 5.445748394797273 10.156371960473322 1 1 1
1352 385 2 0.24746 1.548963397417244 9.677022800176639 9.741121369608518 2 -1 2
2155 642 1 0.43128 8.26125939454648 8.313731879670458 13.52995109570753 0 1 1
1739 504 2 0.24746 9.13325785722856 4.861760639119869 7.113783002686974 -1 -1 0
886 252 1 0.43128 7.725595823995959 1.6895339122619841 13.73669466805603 1 -1 -2
1492 423 6 0 5.535323193197624 8.331598526780414 1.2497512913270774 1 0 0
2288 687 2 0.24746 7.306752750112912 1.906587682285159 10.936392891887936 0 1 2
885 252 3 -0.67874 7.968552193767994 1.5383926352666681 14.64897903143914 1 -1 -2
910 259 2 0.24746 0.5580275641634447 10.414474549233912 4.922657926120548 2 2 1
30 10 2 0.24746 1.9298756038164362 1.7792163770236868 1.1304661655849437 1 0 2
2597 790 2 0.24746 1.0471439020755469 0.894770461162465 13.171105967210494 3 0 0
1108 315 5 0.2556 3.6468488396932544 3.144499571902756 11.787901414240737 1 2 1
3125 966 2 0.24746 9.01451011612447 5.4281593623218445 11.381101745063118 1 1 1
391 111 7 -0.69711 0.4804491396771312 4.407913637436552 12.315053945752293 -2 0 -1
2153 642 2 0.24746 10.060094958888744 9.052083773849757 13.684582491414636 0 1 1
2800 857 1 0.43128 3.477670892472159 10.973352406328306 7.217811072942254 0 1 0
3071 948 2 0.24746 7.558568605295903 1.0418872625156597 1.6683805828447307 2 1 0
697 197 2 0.24746 10.565619884471962 0.6855712240560763 12.959671369828326 1 1 1
503 143 4 0.44151 2.649671325447828 7.869207330348605 16.404281030301888 1 0 1
796 226 3 -0.67874 1.9247498305556274 8.443885685776674 14.808356632610293 1 1 1
641 182 7 -0.69711 9.238802918807643 4.855881937901417 20.09944999040232 0 1 -1
2675 816 2 0.24746 5.042676525641975 5.13936463450596 27.00654389293394 2 1 0
296 83 1 0.43128 1.118438933798116 5.1309272998163555 23.408025548211718 -1 1 -2
2591 788 2 0.24746 3.887311322432535 1.6771301198024817 23.88105548154929 1 0 0
1116 317 5 0.2556 4.174026565662478 9.28047713431412 24.034959976879758 2 0 1
294 83 2 0.24746 1.3843612693433305 4.413392827978584 21.612770820131022 -1 1 -2
642 182 4 0.44151 9.273124090611208 5.545362866187744 20.769518122030686 0 1 -1
2592 788 3 -0.67874 3.671495094998641 0.9774161094063366 22.658939560557155 1 0 0
3087 953 3 -0.67874 10.583376888599425 9.00900605799503 17.969294169050617 1 0 1
1916 563 2 0.24746 8.891365018570868 10.1076811361261 27.208074801283807 0 -1 0
3086 953 2 0.24746 9.325398755105134 9.5604429087188 17.585238647467293 1 0 1
2334 702 3 -0.67874 4.255164730085019 5.22708574144246 23.524319824958468 0 -1 -2
640 182 5 0.2556 10.288138353428453 3.6096340068136126 20.6421153270021 0 1 -1
1119 317 6 0 5.998961583649014 9.763648910100418 24.64273641076931 2 0 1
1117 317 7 -0.69711 4.479837162700273 9.956106921857444 22.487321605534515 2 0 1
2105 626 2 0.24746 8.642226455820694 6.832789356655832 23.02711045014519 1 2 -1
2055 609 3 -0.67874 8.49556161999843 6.430654417619597 26.952832218836132 0 0 -1
239 67 1 0.43128 10.790712969967117 3.945342728069158 27.294878507554284 -1 0 0
2247 673 3 -0.67874 0.8910046200351938 6.467096181904501 25.998039767417616 -1 1 -1
1488 422 1 0.43128 6.763700189387782 7.751886946979671 15.581281739939538 1 0 1
2037 603 3 -0.67874 7.300790367594815 1.1008053703838843 24.31634265111226 1 2 -1
1592 455 2 0.24746 10.53953077984419 5.247090652612974 16.53415526714055 2 1 1
2333 702 2 0.24746 5.125742695377454 5.168844387505938 22.396832325860917 0 -1 -2
2056 609 1 0.43128 7.690955603251039 6.4659970551131 26.439065753024224 0 0 -1
2098 623 1 0.43128 0.8217676178554295 9.679672145773887 25.324718773012826 1 -1 -1
2038 603 1 0.43128 7.147582867094137 0.8269977800806758 25.219239058011652 1 2 -1
504 143 6 0 2.991512217498434 4.7960704621154875 18.124071646151062 1 0 1
2677 816 1 0.43128 5.230117193919198 5.407376046892921 25.082847764812875 2 1 0
1729 500 1 0.43128 2.2151280347101356 1.156186321302577 22.106714971719278 -2 2 0
1162 330 5 0.2556 6.648963841918279 0.7850950751153318 19.65211091995189 0 3 1
2107 626 1 0.43128 10.116385506196615 7.701976679678984 22.085671400978107 1 2 -1
38 12 1 0.43128 1.6023978312496232 10.014643942416154 20.57829400748315 0 0 -1
295 83 3 -0.67874 1.721249421580297 4.51556055265255 22.994204763637065 -1 1 -2
342 96 6 0 3.0847002553927236 9.84264094193289 28.55237604865199 -2 1 -2
2676 816 3 -0.67874 5.706614539522793 5.677111900485273 25.866139007413956 2 1 0
797 226 1 0.43128 1.3178959135999633 9.18008745852486 14.891819337554116 1 1 1
1088 309 1 0.43128 6.003219652730193 10.86975435020641 22.190122186577515 0 0 1
1118 317 4 0.44151 3.6758135434822528 9.831371125930419 21.97543939360269 2 0 1
2106 626 3 -0.67874 9.608153514663483 6.8960477971948775 21.980974838337495 1 2 -1
2086 619 1 0.43128 0.7820977017048598 1.1440152704720468 19.799009882673964 0 0 1
605 172 4 0.44151 10.083794646578378 1.6166894516354504 27.742752874881866 -2 1 -1
2215 662 1 0.43128 4.756781196896884 8.309978179394061 17.189169725997537 -1 0 -1
3088 953 1 0.43128 10.632189801758532 8.113431748955147 17.643063141330774 1 0 1
1078 306 4 0.44151 10.125517172888973 6.507753232468078 26.738192537768665 0 0 0
2335 702 1 0.43128 3.3520935291123948 5.155013808476731 23.2136234451329 0 -1 -2
2213 662 2 0.24746 6.176261816649895 8.169881431875453 18.5222416196741 -1 0 -1
1593 455 3 -0.67874 10.538811001448654 6.353257422182923 17.432908135562425 2 1 1
502 143 7 -0.69711 2.945879366784783 7.202919899166686 17.03105781984174 1 0 1
884 252 2 0.24746 7.005524879939972 2.1790009877198706 15.482661047981223 1 -1 -2
2214 662 3 -0.67874 5.714712865335698 8.327007043283249 17.183338823667686 -1 0 -1
2246 673 2 0.24746 1.0729729736650848 6.469974342418562 27.41227408501135 -1 1 -1
2054 609 2 0.24746 8.148667899819468 6.251125218912573 28.32305562137625 0 0 -1
36 12 2 0.24746 2.3810203649876898 8.250693529026266 20.275681324482854 0 0 -1
37 12 3 -0.67874 2.4584006186643013 9.607741547786022 20.70479483742693 0 0 -1
2036 603 2 0.24746 7.404030632774094 2.5217613759347834 24.28668407439113 1 2 -1
2248 673 1 0.43128 0.9263288468918531 7.368856514862693 25.68733016785255 -1 1 -1
501 143 5 0.2556 2.0777778886748566 5.771755579579466 16.65802117111694 1 0 1
1487 422 3 -0.67874 7.218603721263048 7.424995713919007 14.80936367251105 1 0 1
1165 330 6 0 5.3151652427684795 1.958815525270674 18.770976679545345 0 3 1
1917 563 3 -0.67874 9.426868230639093 9.244654224101112 28.208024864288216 0 -1 0
1594 455 1 0.43128 10.157979420392554 6.06895127553473 18.263868642587763 2 1 1
238 67 3 -0.67874 10.837431872085931 3.1106393741132226 27.75808489780388 -1 0 0
643 182 6 0 9.885631686857634 2.5206318249088744 19.03368174151147 0 1 -1
2593 788 1 0.43128 4.498312513686304 0.928142714717086 22.188984984027115 1 0 0
1918 563 1 0.43128 10.358752661750966 9.132156080355669 28.042905649004123 0 -1 0
2097 623 3 -0.67874 1.0429091926480054 8.889123125160086 24.836683865441707 1 -1 -1
1728 500 3 -0.67874 1.376144499255167 1.1234752708658449 21.650609408207533 -2 2 0
699 197 1 0.43128 9.67590577769551 0.7844141572124252 14.694935277231755 1 1 1
604 172 7 -0.69711 9.76616470486109 0.7102501769269338 27.733939466683424 -2 1 -1
1727 500 2 0.24746 0.34644956872771276 0.9191198138902401 22.613131057760192 -2 2 0
339 96 5 0.2556 4.5817149052242465 8.982169037055353 29.52845249699655 -2 1 -2
2669 814 2 0.24746 1.4902225009391743 3.5029882063629882 30.038142062041192 1 1 2
1105 314 2 0.24746 9.593481912701693 2.959874574125889 31.068731504351614 1 0 0
425 121 3 -0.67874 3.778343245118993 4.86577343266937 40.57977904123419 -2 2 2
1913 562 2 0.24746 0.8760964407356404 5.061197429079506 33.7344175887544 1 -1 -1
2189 654 2 0.24746 10.550658437679827 6.902343906131787 40.20257403065354 1 0 0
629 179 2 0.24746 7.175450716092122 5.931268199962006 36.48062656999879 0 -2 -2
3222 998 3 -0.67874 6.963925449483884 9.377630143856265 36.64009194802068 0 1 -1
942 268 6 0 3.2732311915045242 10.51453455289772 40.16161865409623 1 0 0
630 179 3 -0.67874 6.065175231826911 6.823843279761099 36.42537182100317 0 -2 -2
1489 423 5 0.2556 7.174919149132507 8.933044661729397 42.007441064911916 1 0 -1
1098 312 7 -0.69711 5.424823761346424 5.814744837618309 31.503421146411902 0 2 2
2808 860 3 -0.67874 5.904831787000369 3.698494867682101 41.74519955388742 0 3 1
2476 749 1 0.43128 5.619110032740143 7.044910903831932 34.68156033383475 3 0 -1
1070 304 2 0.24746 3.6949614536439412 1.7250729745972702 32.31835856850182 1 0 -1
3221 998 2 0.24746 8.365810662984236 9.475687135336372 36.40070671914188 0 1 -1
424 121 2 0.24746 4.136901780873126 6.076440635921418 39.918490346164305 -2 2 2
2329 700 1 0.43128 8.698805885405223 10.76138142190556 39.10959736918677 1 1 1
2474 749 2 0.24746 4.313027642128012 8.199466500290795 33.804505277974215 3 0 -1
3147 973 3 -0.67874 10.736358631291068 6.020117771280897 35.445230521892924 -1 2 -1
278 78 1 0.43128 4.535244006732208 5.750050285895671 36.31104284895399 1 -1 1
340 96 7 -0.69711 3.7135070135213017 7.504528739848277 29.620289508935542 -2 1 -2
3223 998 1 0.43128 6.584551455655125 10.25533623364494 36.581914155764366 0 1 -1
1100 312 6 0 6.022242715443392 3.5214807984876013 30.33011690897725 0 2 2
1107 314 1 0.43128 10.20150318751901 1.5367259233941772 32.25982040401898 1 0 0
1643 472 2 0.24746 0.8482066746088959 3.669731948536237 39.03216765132689 2 1 -1
2190 654 3 -0.67874 10.293490536200496 7.748437820954722 39.08346362718851 1 0 0
1491 423 4 0.44151 6.860596148602292 10.214425880167116 40.25846447437607 1 0 -1
1542 438 6 0 1.5131344243119804 7.790196851057395 37.28018638578827 3 1 -1
2224 665 1 0.43128 9.391444160709957 8.862633681482066 30.01332750938781 1 0 -2
1891 554 1 0.43128 8.43585408969314 1.7106213303957736 39.52785915098582 0 1 1
631 179 1 0.43128 6.374687875249557 7.705143361635617 36.63327394659237 0 -2 -2
341 96 4 0.44151 4.284550943338545 6.88657438490714 30.089111194030423 -2 1 -2
2191 654 1 0.43128 9.75861566924725 8.483547280235918 39.37679387168602 1 0 0
2809 860 1 0.43128 5.207275060533824 4.146473293855054 41.271479799466576 0 3 1
3146 973 2 0.24746 10.278442923281665 5.904275146877558 34.09877301651011 -1 2 -1
3133 968 1 0.43128 10.393773044191438 3.319375419531247 39.30406052978536 -2 1 -1
1097 312 5 0.2556 6.401074896530792 4.499549488483693 32.01401235676601 0 2 2
2327 700 2 0.24746 10.234695879659203 10.960999070683133 40.30023088076051 1 1 1
2222 665 2 0.24746 9.948774817316794 9.508411085790755 31.770888250086948 1 0 -2
240 68 5 0.2556 4.579038525510743 1.423356916014843 39.53845658918526 -1 1 -1
277 78 3 -0.67874 3.828478415201939 5.105838059649144 36.22985317048878 1 -1 1
1644 472 3 -0.67874 0.7116586919773503 4.374947656727817 40.26394833127824 2 1 -1
1490 423 7 -0.69711 6.235337533013493 9.805516749159363 40.86473511835108 1 0 -1
1099 312 4 0.44151 5.456875176010411 6.464862397354223 32.21162714747702 0 2 2
3132 968 3 -0.67874 10.135985978547614 2.6483283164493363 39.93624158497927 -2 1 -1
994 282 6 0 7.128477477248136 1.496422168146886 34.96010326447639 1 -1 -1
2328 700 3 -0.67874 9.278480564668623 10.172203835465076 39.59356499973208 1 1 1
276 78 2 0.24746 4.370664565249728 3.9107842860403648 35.67031026416751 1 -1 1
2475 749 3 -0.67874 5.359598728109413 7.2316958683437385 33.78185084570468 3 0 -1
2807 860 2 0.24746 7.158161923031133 4.125239483515967 41.21426626465639 0 3 1
939 268 5 0.2556 2.8784910960565835 10.764777774054036 42.08970874777688 1 0 0
426 121 1 0.43128 2.8451843938420747 4.7202249724488095 40.456978850791685 -2 2 2
2223 665 3 -0.67874 9.525257903584466 8.4782671997227 30.880989747694088 1 0 -2
1106 314 3 -0.67874 10.418155504074981 2.458459231117999 32.118402209950005 1 0 0
1890 554 3 -0.67874 7.745015903083715 1.0564263263465037 39.420515678931224 0 1 1
1212 344 1 0.43128 10.992412817234424 4.782398259126734 36.9374023908975 2 0 -1
3073 948 1 0.43128 6.317995826337879 2.1989306090350538 42.40340576250247 2 1 -1
3148 973 1 0.43128 10.693163645463182 6.94352242841226 35.701640595221576 -1 2 -1
242 68 4 0.44151 5.22759425047878 0.7304636043741916 41.51294545532711 -1 1 -1
1219 346 4 0.44151 4.2343214243362395 15.086232130737207 10.237761655087876 1 -1 1
784 222 1 0.43128 10.016580927083464 13.528424160690635 2.266604522316001 1 -1 -1
890 254 5 0.2556 6.729262172748218 17.627651582983805 5.793930051227294 0 0 1
2167 646 1 0.43128 4.109273238156079 21.111594066513305 11.636469054049098 2 -1 1
3099 957 3 -0.67874 3.9535176821550064 20.568863205852388 5.367125949223163 2 0 0
1023 290 7 -0.69711 1.6420882926102836 16.357389259377094 4.638814808063962 -1 2 2
2408 727 2 0.24746 7.0814358646992055 12.965551365518934 4.796991903827152 0 2 1
2197 656 1 0.43128 1.6968043442886471 16.56657819359601 1.2244611847056737 0 4 1
3026 933 2 0.24746 10.186109607624973 19.322729897428147 9.175494410335029 1 1 0
3209 994 2 0.24746 4.363785290878461 15.743448653592651 14.47603287225213 0 -1 0
2611 794 1 0.43128 9.027699307166703 12.478915561025516 13.428741590186506 0 1 -2
2409 727 3 -0.67874 8.041696716949202 11.946237003522956 4.526475240286309 0 2 1
1709 494 2 0.24746 2.127226218278898 13.096633173039667 7.80180922849934 -1 1 1
1025 290 6 0 2.550652791035459 17.107986884356723 7.0076162077269855 -1 2 2
1364 388 3 -0.67874 9.93636191647526 18.309166109495862 4.755114682582722 0 0 1
891 254 7 -0.69711 8.260741424336572 16.947516910213288 6.170936380795247 0 0 1
3027 933 3 -0.67874 9.857434197400806 19.542351255139334 10.54551463138174 1 1 0
960 273 1 0.43128 3.3709693361785042 13.240623746108001 11.363291867536779 0 0 2
3098 957 2 0.24746 2.909744545458598 20.63349736650384 4.3979028315541955 2 0 0
1217 346 5 0.2556 6.272788548206578 14.295480750390446 10.133315413171381 1 -1 1
2965 912 1 0.43128 3.8778506843014116 16.653666117250214 12.013804660580801 2 1 0
3028 933 1 0.43128 9.59322726278636 18.707899377151715 10.93062620251942 1 1 0
2609 794 2 0.24746 10.456640645063922 12.79257637015299 12.134447029893614 0 1 -2
892 254 4 0.44151 8.913945917710107 17.47645993034219 5.699544962498964 0 0 1
955 272 2 0.24746 8.24342284593463 16.394997601273158 12.25848841471436 -1 1 0
2699 824 2 0.24746 2.9304359863913167 13.44107390739953 3.5953347143627528 2 2 2
1363 388 2 0.24746 11.03203711812049 18.83790447913665 5.498115458932036 0 0 1
893 254 6 0 5.8125396457184335 16.27784629055533 6.922791466682843 0 0 1
1218 346 7 -0.69711 4.571814384548657 14.2480973389909 9.908238010817133 1 -1 1
3210 994 3 -0.67874 4.134267188781136 16.785660279850173 13.530954214358273 0 -1 0
782 222 2 0.24746 10.679819020726443 11.712702248932 2.5170361918957393 1 -1 -1
957 272 1 0.43128 8.687458135614113 16.799097270282687 10.401727910482517 -1 1 0
2610 794 3 -0.67874 9.840295307449871 12.986698590658884 13.404770992876108 0 1 -2
1362 387 6 0 0.7938392130145349 18.832803928786795 13.235454753053551 0 0 0
956 272 3 -0.67874 8.767318286706727 17.24611895113889 11.24183136183023 -1 1 0
747 211 3 -0.67874 6.0083581332180644 21.00203009231269 11.771919001896643 0 -1 1
941 268 4 0.44151 2.800586246956645 12.83878395350492 1.0882259470392774 1 0 1
3211 994 1 0.43128 3.8883287553312025 17.578398727816204 14.008058206577086 0 -1 0
2083 618 1 0.43128 8.3694738656656 16.33701190745049 7.838705574951425 1 1 1
2963 912 2 0.24746 4.1754177575665885 17.78299893119795 10.450983091102271 2 1 0
2700 824 3 -0.67874 2.005659009231418 12.79295157902772 2.7259462143171893 2 2 2
907 258 7 -0.69711 10.021726574586703 19.928437651920547 2.587176998484222 1 0 0
2410 727 1 0.43128 8.744559607137486 12.32529465758291 3.9984323829562323 0 2 1
748 211 1 0.43128 6.451565297676335 21.405247065284577 11.025623342268368 0 -1 1
1365 388 1 0.43128 9.920159705438644 18.732066960034604 3.896379868941365 0 0 1
2134 635 1 0.43128 0.4432181096221982 12.28871991621801 11.406461744967572 1 1 1
1022 290 5 0.2556 3.113851730290559 17.10701952812209 5.105665305607341 -1 2 2
959 273 3 -0.67874 2.757218366294019 12.621706368651179 11.751271688522808 0 0 2
2082 618 3 -0.67874 8.645467328200919 16.161959312884974 8.736913215250896 1 1 1
1156 328 4 0.44151 7.306617567724436 21.18749812449405 1.5073608487813084 -1 -1 2
1711 494 1 0.43128 3.863859850264165 12.842550951047672 8.65857960182624 -1 1 1
2701 824 1 0.43128 1.2965253355401316 12.431383480220038 3.2538259063375374 2 2 2
1710 494 3 -0.67874 3.341157790827472 12.377152297781196 8.004089135344929 -1 1 1
2964 912 3 -0.67874 3.8132455271975974 16.549277579485675 11.067534056296212 2 1 0
109 32 4 0.44151 10.25941965964431 14.348305444791885 14.478056504379548 1 1 -1
958 273 2 0.24746 2.833884429389183 12.738612998072933 13.168592650967813 0 0 2
1024 290 4 0.44151 1.6879866081490222 16.246502302881307 3.684205779822343 -1 2 2
746 211 2 0.24746 6.786302275071305 19.892132272316534 12.213380506034033 0 -1 1
1235 351 3 -0.67874 7.734072330748793 11.339542815828443 13.284327373543404 -1 0 1
2196 656 3 -0.67874 1.3219020266805783 16.154299228562614 2.000717267666979 0 4 1
908 258 4 0.44151 9.207554091217062 20.410318877570806 2.7617117611432915 1 0 0
1220 346 6 0 6.46217412370136 12.481284731223116 9.35475970911719 1 -1 1
2081 618 2 0.24746 9.59760604593473 15.101240264977056 8.717507678608285 1 1 1
1155 328 7 -0.69711 7.825230984440832 21.358925478090345 2.296109004545179 -1 -1 2
3100 957 1 0.43128 3.6079265035728914 20.87438106202582 6.205721190615583 2 0 0
2166 646 3 -0.67874 3.223162771335953 21.33722009038081 11.351829393379928 2 -1 1
783 222 3 -0.67874 9.839331237197595 12.808528324716619 2.8657375645515635 1 -1 -1
1853 542 2 0.24746 10.966991205786801 15.939706756402265 1.8492104880956521 0 0 0
1234 351 2 0.24746 6.39860510466216 11.301922479531948 13.780232276865508 -1 0 1
975 278 5 0.2556 4.097386003848948 14.267070807968107 21.786500343107303 0 0 1
1471 417 3 -0.67874 6.640075151018409 13.843675673020915 16.89221890184139 1 -3 0
3130 967 1 0.43128 6.338322158841063 15.825591084289913 23.7671694949694 2 0 3
3177 983 3 -0.67874 9.773062776952376 13.207463238493663 28.023986042802413 0 0 -1
231 65 2 0.24746 9.086723762745844 20.828213741273633 14.731930614473539 1 0 3
2755 842 1 0.43128 1.236527993935396 13.46225041997689 20.43135434744567 2 -1 0
1470 417 2 0.24746 7.5608210521878565 12.801476789999091 16.581611854937503 1 -3 0
2278 683 1 0.43128 4.543968527438885 15.682053112750472 27.454038952060873 -1 -1 0
1103 313 4 0.44151 0.7509828275362183 18.309791521172613 16.097643248836356 1 -1 0
2898 890 3 -0.67874 3.501533611515666 18.81743975076144 15.077067427284378 2 0 0
357 101 3 -0.67874 8.826403804422958 11.949442230509609 23.722334198455215 2 -1 -4
1136 323 2 0.24746 0.6468958970958523 17.25650290331237 28.416014187081753 1 -1 1
3128 967 2 0.24746 7.351352881008666 17.491502964493428 23.828528034876015 2 0 3
1065 302 4 0.44151 2.795589989015152 13.936611548735836 18.699238534847154 2 2 2
3129 967 3 -0.67874 7.059151078207648 16.174915523459134 24.28772588065261 2 0 3
2709 827 3 -0.67874 10.56357032662909 15.400711817715628 26.667011724876748 0 -1 0
1766 513 2 0.24746 3.3415565920514796 12.926510352204351 25.151642291871838 0 -1 -1
977 278 4 0.44151 5.961811564580032 13.58432016569725 22.705959019444286 0 0 1
602 171 1 0.43128 9.159775204910389 15.839440225643434 15.789761877386992 -1 0 -2
1772 515 2 0.24746 9.406586268458478 18.290411500930762 19.139901932567 -2 0 1
2549 774 2 0.24746 3.8587608428759603 11.667357603197402 18.20473424886815 0 1 2
2199 657 3 -0.67874 6.091394765422774 18.465005937095707 18.29786286031842 2 -1 3
600 171 2 0.24746 7.825693775241723 17.234817596945234 15.495046790349356 -1 0 -2
2200 657 1 0.43128 7.044146635722301 18.548734364895594 18.337823404628402 2 -1 3
1767 513 3 -0.67874 2.566542841704455 13.11522273477597 26.33257606638905 0 -1 -1
16 5 4 0.44151 8.800436521526013 19.23034980340014 26.176112833461943 0 0 1
2141 638 2 0.24746 4.093018480674388 18.63900577174291 27.4700626521427 0 0 0
2710 827 1 0.43128 9.937451107572013 14.706883183877485 26.873427644594635 0 -1 0
29 9 1 0.43128 1.1059231850622093 11.926575115374314 26.09948355093452 0 -1 0
1768 513 1 0.43128 3.049675174388399 13.695135547235664 26.92263804210621 0 -1 -1
15 5 7 -0.69711 9.23183178578096 19.743117122185296 25.484557435377166 0 0 1
978 278 6 0 3.423051975901458 16.028435327126573 22.402332109135568 0 0 1
356 101 2 0.24746 8.544366547693343 12.749027677172954 24.86992443557261 2 -1 -4
1774 515 1 0.43128 9.130670423556166 19.67488428535839 17.787217347411264 -2 0 1
1773 515 3 -0.67874 8.577008195996516 19.18465821149738 18.40027107495768 -2 0 1
2198 657 2 0.24746 5.6989500527003365 17.37820464829026 19.133357199020693 2 -1 3
2277 683 3 -0.67874 4.3060496682867 14.794062938575149 27.723760413020294 -1 -1 0
2899 890 1 0.43128 2.9791462453697797 18.65657970579774 15.863858022528424 2 0 0
232 65 3 -0.67874 9.88373702641041 19.99741197951445 15.57323155520511 1 0 3
947 270 5 0.2556 10.174548369956268 14.11033659158417 20.755805131048454 1 0 0
2551 774 1 0.43128 4.985546371313172 13.23363202140705 17.917786954454098 0 1 2
976 278 7 -0.69711 5.449473119516006 14.384570940656893 22.83674344334688 0 0 1
358 101 1 0.43128 8.098824703351095 12.03237314362157 23.110141789929123 2 -1 -4
14 5 5 0.2556 8.290647817951577 21.163691322816543 25.2819966519364 0 0 1
948 270 7 -0.69711 9.712658886544013 13.167847120101538 19.39891025611756 1 0 0
1472 417 1 0.43128 7.049487865568671 14.68198569399778 16.6857528673663 1 -3 0
1102 313 7 -0.69711 1.4007449267128493 18.550019106525895 16.766370149455497 1 -1 0
2142 638 3 -0.67874 4.99370990244968 17.561782590253685 27.223219861191396 0 0 0
2897 890 2 0.24746 4.557608855389334 19.71415663894178 15.412919867710901 2 0 0
1104 313 6 0 2.3615913393386845 20.001371801799106 18.75781568846709 1 -1 0
1064 302 7 -0.69711 2.062080865891199 14.40206369455183 19.10331923123604 2 2 2
2143 638 1 0.43128 5.852552191478905 17.92747651295853 27.010803041527108 0 0 0
901 256 6 0 1.7051608454988716 20.961609843906746 22.984073829405634 1 1 1
2550 774 3 -0.67874 4.05125163390056 13.068251404866418 18.024890379358286 0 1 2
981 279 4 0.44151 5.535046210174905 19.94347062171292 19.060586444324652 1 1 1
2910 894 3 -0.67874 8.021798039079075 18.635831174314045 27.597661384456185 0 2 1
980 279 7 -0.69711 5.61013150714818 20.72318435739571 19.61761704285302 1 1 1
1063 302 5 0.2556 1.7847663896446146 15.794094469724755 18.139455301427382 2 2 2
950 270 6 0 8.45674008732458 15.10022903087673 20.690897398982795 1 0 0
949 270 4 0.44151 10.44323022233041 12.56662005988713 19.226387127219926 1 0 0
1101 313 5 0.2556 0.7667645991795273 19.921021932289573 17.580645853442313 1 -1 0
28 9 3 -0.67874 0.40976798237285283 11.27679748253731 26.168456491335675 0 -1 0
1087 309 3 -0.67874 6.725844130385094 11.485541121872743 22.08049525728349 0 0 1
233 65 1 0.43128 10.729767311322176 20.424984513987287 15.706906112485274 1 0 3
979 279 5 0.2556 6.5940032922159455 20.26813022562438 20.94964880151795 1 1 1
2921 898 2 0.24746 0.37835543201270616 17.48482140627594 24.637980805805185 0 2 1
601 171 3 -0.67874 8.254603300756688 15.9975401250563 16.05890391286245 -1 0 -2
2708 827 2 0.24746 10.30651439882466 15.860833711610285 25.34248324684481 0 -1 0
2911 894 1 0.43128 8.315906130066773 17.859219322102383 28.068457205728937 0 2 1
108 32 7 -0.69711 10.576280334188775 15.024106869686666 15.075870963803112 1 1 -1
1086 309 2 0.24746 6.895477380560584 11.739078962174723 20.68879618663859 0 0 1
2754 842 3 -0.67874 0.9953789945913413 12.957003157922287 21.208811226725995 2 -1 0
3040 937 1 0.43128 10.641184685689957 11.441808593110421 23.4208368721348 1 0 1
3178 983 1 0.43128 10.669165375498057 12.92917643448152 28.200841144037174 0 0 -1
6 2 4 0.44151 10.639832988874762 16.73518886754888 28.02005448383178 0 -1 -1
2909 894 2 0.24746 8.01046607254369 19.736071130868645 28.503729520286363 0 2 1
2136 636 3 -0.67874 5.595232931559147 11.7732223588449 36.41248138799149 0 2 -2
940 268 7 -0.69711 2.9705853752955442 12.470346742985566 41.91625167428856 1 0 0
89 26 4 0.44151 6.8536749604746925 17.00030881822739 38.5628160765861 -1 2 -1
56 18 5 0.2556 7.915031988338272 17.893503094618133 34.21438263112674 -1 0 0
1435 408 5 0.2556 9.626037894899431 13.781074105897762 35.510007088597746 3 0 1
2137 636 1 0.43128 5.669321976915882 12.594027537804664 35.92337699636521 0 2 -2
245 69 3 -0.67874 1.9704619401217716 12.571581665728402 32.627681398853646 1 1 2
1068 303 3 -0.67874 9.994224761578632 15.755967723797033 38.46796584188213 1 -1 -1
410 116 6 0 6.8425987099131556 21.181980614770982 32.24262714533541 -1 0 -1
446 127 2 0.24746 6.225042852889867 13.304906401076595 33.574903595476016 -1 0 0
7 2 6 0 10.090509044907096 17.60518339739951 31.40397179446617 0 -1 -1
2135 636 2 0.24746 4.212323165087285 11.470594906482683 36.579043245262255 0 2 -2
3176 983 2 0.24746 9.009973128419897 13.058572550435406 29.21946342706901 0 0 -1
1697 490 2 0.24746 7.305981598972493 13.30204013931301 38.473857258010156 -1 0 0
179 50 6 0 1.1690382824056018 15.456975455899991 37.90922759892051 0 0 -1
1698 490 3 -0.67874 7.102238442084719 12.110240779518875 39.2289408606148 -1 0 0
2842 871 1 0.43128 1.9141450315699908 17.663457853838 40.698774397865236 1 1 1
447 127 3 -0.67874 6.300160069990445 13.955771373592432 34.84073667014893 -1 0 0
105 31 3 -0.67874 5.49580191615673 13.11700744790651 41.04396764080822 -1 1 0
246 69 1 0.43128 1.4102095775544357 11.983907074650235 33.135194469166706 1 1 2
1182 336 2 0.24746 2.49770189642817 19.225296604303455 38.459851283041104 2 -1 0