LAMMPS data file via write_data, version 29 Aug 2024, timestep = 1000000, units = real

3072 atoms
7 atom types
2072 bonds
5 bond types
1072 angles
3 angle types
216 dihedrals
3 dihedral types

0.8157096439035065 42.790940356096954 xlo xhi
1.1452250597575286 42.39647494022397 ylo yhi
1.235161727057342 42.00764827292943 zlo zhi

Masses

1 1.008
2 15.011
3 15.999
4 1.008
5 14.011
6 15.011
7 15.999

Pair Coeffs # lj/cut/coul/long

1 0 0.4
2 0.239639 3.7543
3 0.174632 3.03
4 0 0.4
5 0.171477 3.4612
6 0.238761 3.6072
7 0.169017 3.1496

Bond Coeffs # harmonic

1 1000 1.4246
2 1000 0.9451
3 1000 1.9842
4 1000 1.71581
5 1000 0.95053

Angle Coeffs # harmonic

1 1000 108.53
2 1000 106.368
3 1000 90.95

Dihedral Coeffs # quadratic

1 1000 180 
2 1000 180 
3 1000 180 

Atoms # full

1837 589 2 0.24746 7.283075726037107 5.765041516442866 8.942403525449283 1 -1 2
2078 669 3 -0.67874 7.354917914320446 8.40636649668268 11.758147922252716 1 2 -1
3051 993 1 0.43128 10.03610937593372 5.243632055574091 4.286083300704412 1 1 -2
1704 544 1 0.43128 8.830601516170868 7.000385435380862 3.2016497213479322 1 -2 -2
1649 526 3 -0.67874 10.919424664875017 2.4668511698267053 2.77319090569575 1 2 0
1870 600 2 0.24746 9.573212737676366 10.763132236620148 12.990244530487347 0 1 0
1839 589 1 0.43128 8.127730389516596 5.456510926460381 10.673386854810657 1 -1 2
1252 394 2 0.24746 6.946619118875523 3.2580479921187346 13.572721958327431 1 0 0
2502 810 1 0.43128 3.2865515296046817 2.0747270434350567 6.484693593053976 0 -1 0
911 280 3 -0.67874 5.90194113153443 7.877524358137886 5.354166416884018 2 1 -2
910 280 2 0.24746 4.993095333475599 6.796216286466072 5.546321963900886 2 1 -2
1871 600 3 -0.67874 8.36675755279881 10.921993780809489 12.245464437221141 0 1 0
2771 900 3 -0.67874 1.3619053685079705 2.4474734815416506 6.223951022713064 0 0 3
1703 544 3 -0.67874 8.634363999519453 7.77034731711135 2.6680291749213954 1 -2 -2
3050 993 3 -0.67874 9.163566854125612 5.6263889214951295 4.224346054643455 1 1 -2
2772 900 1 0.43128 1.0772236621003664 2.736482672109223 5.357160177532252 0 0 3
1657 529 2 0.24746 8.347662075824529 9.352271241558567 7.517485559662395 -3 0 0
118 35 7 -0.69711 6.0868686113316155 9.37335517586448 2.8878762648824643 0 -2 1
912 280 1 0.43128 5.808966500370949 8.194444392237939 4.455222491384456 2 1 -2
119 35 4 0.44151 6.793239675394851 8.83340202319798 2.520928792602702 0 -2 1
741 223 1 0.43128 8.685336071797913 11.12842984727095 5.508836651115043 1 1 -3
3038 989 3 -0.67874 11.068034470672647 4.190294496519854 6.967504409967338 1 2 1
1685 538 3 -0.67874 3.2461526981872364 9.75757976787904 12.135767261753278 2 -3 3
1931 620 3 -0.67874 1.9859790326032616 7.900017682054432 10.69610525389591 1 1 1
1686 538 1 0.43128 2.91773949561528 9.080544638847343 11.54284804517504 2 -3 3
117 35 5 0.2556 5.950099804689296 10.742736817643134 1.8619821505880632 0 -2 1
2711 880 3 -0.67874 8.98536737647223 1.4120533594244478 10.969463411708919 0 0 3
1932 620 1 0.43128 1.0354355461526865 8.016983068271827 10.724889740158758 1 1 1
2077 669 2 0.24746 6.252667592659875 8.368831051544044 12.663677342966173 1 2 -1
1684 538 2 0.24746 2.553838013250474 9.642880433750951 13.377323076620875 2 -3 3
2391 773 1 0.43128 10.92548702951919 5.734097416897484 7.790243720829648 0 2 2
1658 529 3 -0.67874 7.983190167487256 9.802837868005644 6.215004547853675 -3 0 0
1930 620 2 0.24746 2.3904556431561166 7.831354212340098 9.330937411894146 1 1 1
483 141 3 -0.67874 4.17786442298873 5.378388840743532 14.730543692678392 -2 0 2
1648 526 2 0.24746 9.94259104625276 2.1470723967464496 3.7599379924448804 1 2 0
2500 810 2 0.24746 4.91053792225296 3.153568998471728 6.488643531548558 0 -1 0
836 255 3 -0.67874 9.166231644132461 4.115475917490286 11.4520072633057 0 0 0
482 141 2 0.24746 3.2075758931472134 5.178248716714329 13.705308202212667 -2 0 2
1838 589 3 -0.67874 7.361902298965303 5.929883286598647 10.355018770843339 1 -1 2
2079 669 1 0.43128 7.415772741970407 7.5567881133107315 11.320687547363645 1 2 -1
3049 993 2 0.24746 8.602737699730799 5.684317376955471 5.53394921317585 1 1 -2
837 255 1 0.43128 8.920781942107032 3.252843024115539 11.115906011309583 0 0 0
1702 544 2 0.24746 9.810354210062636 8.571131892952412 2.5814310998279995 1 -2 -2
835 255 2 0.24746 10.546438520794814 4.084674295797617 11.808681101796717 0 0 0
232 68 2 0.24746 6.827394093865294 4.1238330686322255 2.1052365014922465 1 -1 1
2501 810 3 -0.67874 4.185031360876646 1.9625920441155214 6.783538386293893 0 -1 0
1872 600 1 0.43128 8.122686222325072 10.069116838837557 11.876849461175249 0 1 0
1659 529 1 0.43128 7.2642567644120986 9.256957769120085 5.8957077409267304 -3 0 0
3004 978 2 0.24746 1.942174908196786 6.6137733554626745 3.726382991971787 -1 1 3
2029 653 2 0.24746 2.8639762714643253 2.592148100697848 1.650538712253464 0 0 -1
1253 394 3 -0.67874 5.775856133354936 3.0739741843439026 14.365910433220593 1 0 0
2457 795 1 0.43128 4.270245157068599 11.074071025943297 11.709904438265081 2 1 1
2014 648 2 0.24746 2.6186371773215953 1.966018779513283 11.580860305349667 0 1 2
1350 426 1 0.43128 5.224970341672483 1.4448581012463042 14.46414380145679 0 0 2
3037 989 2 0.24746 10.986732408008729 2.788646010499585 7.207566397666659 1 2 1
1254 394 1 0.43128 5.325056475888493 3.9172014862171065 14.441309215874966 1 0 0
571 167 2 0.24746 1.3890174555274593 9.503632801895398 1.5974734052785 1 0 0
1650 526 1 0.43128 11.207820956316908 1.6560375864919084 2.358467575287825 1 2 0
2699 876 3 -0.67874 10.466813998317955 5.484436406259917 26.120382830979747 2 2 -3
1026 318 1 0.43128 10.138869370194609 7.196785980691806 25.095393593349815 -3 -1 2
270 79 3 -0.67874 6.367155433108964 8.134238367084663 22.662791279179483 1 2 1
722 217 3 -0.67874 10.965418823262118 7.859940350826601 16.812901329735865 0 1 0
1743 557 1 0.43128 4.024660022544965 8.05776167076574 16.904002680052727 2 1 0
484 141 1 0.43128 3.931991125367861 6.153663584306404 15.232142778991204 -2 0 2
2973 967 1 0.43128 11.16269742230216 2.1210890672944327 25.723121157157614 -1 1 0
516 150 7 -0.69711 6.859770842491621 8.132276367988341 18.410204409993227 -1 -2 1
2372 767 3 -0.67874 3.803839907949997 4.564966173077923 25.561062058719205 2 1 0
2868 932 1 0.43128 8.658006044967676 2.2091845435258315 24.15027805780385 0 0 0
623 184 3 -0.67874 4.605330560093791 9.649237074725784 19.31651962365143 -1 -1 -1
977 302 3 -0.67874 4.125184811446516 3.5941484993880373 21.668536998082537 0 0 0
737 222 3 -0.67874 9.413037249582798 9.336053492371889 18.74074839251765 -1 0 1
515 150 5 0.2556 6.580265169657038 6.557582579157082 19.03300592592525 -1 -2 1
2371 767 2 0.24746 3.432223441164933 5.668425393005915 26.382543339122922 2 1 0
518 150 6 0 8.409882553362344 5.991532276750753 18.51439725983557 -1 -2 1
517 150 4 0.44151 6.048104040939816 8.628798851619951 18.559839271531818 -1 -2 1
723 217 1 0.43128 10.41805194945836 8.32590509745038 17.445790707549655 0 1 0
1754 561 3 -0.67874 3.823576119090213 10.004735906514673 16.879949890966927 0 -2 1
403 117 4 0.44151 2.392683751742488 2.514972610473814 23.97126094346584 -2 0 0
1008 312 1 0.43128 4.731676083279265 8.077138705051876 21.809993870887755 1 -1 -3
976 302 2 0.24746 5.227434525342794 4.488358122664113 21.797009347333763 0 0 0
1608 512 1 0.43128 3.0637404769466836 10.767651987992275 24.184389784999645 2 0 -2
721 217 2 0.24746 10.135355126961993 7.405411676318848 15.746644197546576 0 1 0
1553 494 3 -0.67874 3.696070179140235 2.055575425374599 19.615622773048305 1 1 0
2866 932 2 0.24746 9.148920762778523 3.66376550118986 22.944946063935582 0 0 0
1007 312 3 -0.67874 3.9794413219872764 7.7777184740566225 21.29899997724714 1 -1 -3
978 302 1 0.43128 3.52494371614183 3.744570630638072 22.400359783540186 0 0 0
271 79 1 0.43128 6.878280941710725 8.85407417072933 23.029991921985424 1 2 1
2867 932 3 -0.67874 9.306177779411087 2.343812225290238 23.4614480574424 0 0 0
1010 313 3 -0.67874 8.324258086435606 9.828990396316595 23.807928495081786 1 -4 -1
2373 767 1 0.43128 3.078425838310377 4.369032783941371 24.970238985263627 2 1 0
402 117 7 -0.69711 2.2284329628334567 3.4508819876728896 23.81095491788882 -2 0 0
1606 512 2 0.24746 3.6061670735937703 9.488444279355763 25.554669032170864 2 0 -2
1554 494 1 0.43128 3.9074829825083186 2.5799486296255085 20.388637233945186 1 1 0
1907 612 3 -0.67874 7.527583683391389 1.5590602454977047 25.668042010067442 1 -1 -1
2698 876 2 0.24746 9.843469800518564 5.406811679641915 27.39937835519477 2 2 -3
622 184 2 0.24746 5.362320404822027 10.647541757097564 19.994195803398714 -1 -1 -1
269 79 2 0.24746 6.641868823364586 6.955805040423945 23.414115391895418 1 2 1
1755 561 1 0.43128 4.133918022569676 10.02059919807702 17.785901124271636 0 -2 1
1025 318 3 -0.67874 10.189027821730752 7.8526804781634185 24.403164491842553 -3 -1 2
1006 312 2 0.24746 2.795843333562267 8.010064503395267 22.061253094337175 1 -1 -3
1009 313 2 0.24746 8.011973607906683 10.56398331401736 24.98857253270765 1 -4 -1
1741 557 2 0.24746 3.173210527724483 6.651441522762918 17.95702869595466 2 1 0
736 222 2 0.24746 9.942579496840358 9.499171611270809 20.05369078000643 -1 0 1
1552 494 2 0.24746 4.281195576643226 2.6779130494306616 18.474032995218042 1 1 0
1011 313 1 0.43128 9.221918674779257 9.509312285496138 23.879644575876238 1 -4 -1
624 184 1 0.43128 4.240032380969609 9.051630231853913 19.967638747248728 -1 -1 -1
1607 512 3 -0.67874 3.827668422505814 10.639670444005523 24.74339521188968 2 0 -2
2700 876 1 0.43128 10.859472241661043 4.6367975870500375 25.923440794835347 2 2 -3
113 33 6 0 10.18237737731353 9.268580028522873 27.635290539914244 0 1 -2
2527 819 2 0.24746 1.1374888780500931 2.2541035295591083 16.023835006130675 2 0 0
738 222 1 0.43128 8.602682711384546 8.838639699604233 18.801492976412774 -1 0 1
1906 612 2 0.24746 6.303381540909384 2.106679804879522 25.18536531379443 1 -1 -1
258 75 6 0 2.612778149169708 2.082051738163878 27.087855477345936 0 1 1
1957 629 2 0.24746 11.248127729087653 3.4277252198271695 16.809571637930645 1 0 2
1742 557 3 -0.67874 3.5155246469314245 7.2690189233758105 16.718313720903396 2 1 0
1753 561 2 0.24746 4.136325698075949 11.256682236202074 16.273802859178375 0 -2 1
1958 629 3 -0.67874 11.24417836641057 2.08047168068821 16.343956753546543 1 0 2
1959 629 1 0.43128 11.054679251056566 1.5037149944740331 17.086056008444913 1 0 2
1251 393 1 0.43128 9.054099482670745 1.1661584136516225 26.53327648223709 1 0 0
1517 482 3 -0.67874 10.656203681368261 7.919263491711832 33.45207601307703 2 3 0
1893 607 1 0.43128 8.705469309022508 7.998319593169868 37.42314890982321 0 -1 -1
592 174 2 0.24746 8.36266665460223 9.542845875078962 39.48731550760269 1 1 -2
1127 352 3 -0.67874 9.044127136429164 6.439092979030623 32.04481721750855 -2 1 2
54 16 4 0.44151 2.409273366139413 4.750952536367951 40.37050783749507 0 -2 1
110 33 5 0.2556 9.527008704126192 8.388473518414504 29.28751169818283 0 1 -2
96 28 3 -0.67874 3.57531025924538 5.145930495109855 37.620515630862684 0 1 -3
602 177 3 -0.67874 7.435229548090152 1.8095150339826898 31.26894057192064 3 2 -1
593 174 3 -0.67874 9.317069908176821 9.282335057166955 38.46128920891741 1 1 -2
1447 459 2 0.24746 0.8291105552842589 10.253655252879842 37.56530861240955 0 -2 1
844 258 2 0.24746 7.293615468842043 2.1011437736202176 36.20370944124697 0 -1 -2
234 68 1 0.43128 6.5542027831729825 3.287466208605028 41.135429355853375 1 -1 0
2031 653 1 0.43128 4.147404348203881 3.7155293203077906 41.475346656441474 0 0 -2
1242 390 1 0.43128 3.550353485192383 10.419369456041512 38.33070067649889 2 1 -2
603 177 1 0.43128 6.830405542459047 2.081068348258041 31.959450688139533 3 2 -1
846 258 1 0.43128 5.434605921603867 2.3327424066784044 36.75894840436155 0 -1 -2
480 140 3 -0.67874 6.482716501556121 7.826977828695813 31.138552160351487 0 -1 0
845 258 3 -0.67874 6.010672343395462 2.7157940879353784 36.09505866631653 0 -1 -2
97 28 1 0.43128 3.058421144692389 5.50423997635632 38.343984018292204 0 1 -3
2334 754 1 0.43128 3.149823099883268 3.7247861668830553 36.419520845519756 0 1 1
594 174 1 0.43128 10.126134113039077 9.747775154120411 38.674959157908546 1 1 -2
1240 390 2 0.24746 4.341603283082112 9.146105044704962 39.58238089717179 2 1 -2
2750 893 3 -0.67874 3.8597440045350817 7.750721943786796 30.045217841320497 -1 -1 1
711 213 1 0.43128 6.865205947770415 2.49725208040355 38.9399654790506 -1 -1 -2
2749 893 2 0.24746 3.0011603602062364 8.413772615337983 29.120230935225493 -1 -1 1
1793 574 3 -0.67874 6.0651030246769135 9.285714097021833 36.10062710419572 1 -1 0
2588 839 3 -0.67874 6.013343313421217 2.910349548479036 29.11282802374165 1 0 -2
2333 754 3 -0.67874 2.413832154862213 3.1883927219812547 36.12264654619102 0 1 1
1518 482 1 0.43128 10.134136414459329 7.155631364478993 33.20523357264818 2 3 0
1892 607 3 -0.67874 8.150348185658391 7.473113440500101 36.845507726108664 0 -1 -1
1891 607 2 0.24746 8.943276610285823 6.4292429982188875 36.285169735761784 0 -1 -1
1128 352 1 0.43128 8.204437104153401 6.8476056847111755 31.833564310994053 -2 1 2
2832 920 1 0.43128 4.13184470500312 2.91461285369892 30.351661633985028 1 0 0
1166 365 3 -0.67874 6.547730858658743 3.1473408429810483 33.33185196313545 1 0 -3
1241 390 3 -0.67874 4.300135752318145 10.411574639120248 38.92760809748364 2 1 -2
111 33 7 -0.69711 7.9023870807083325 8.532380349091554 28.753420553401124 0 1 -2
2463 797 1 0.43128 0.9882678250328567 2.5716581034577377 36.8918619382746 0 2 -3
479 140 2 0.24746 6.570610635231977 9.078549809596076 31.816249163976313 0 -1 0
2332 754 2 0.24746 1.7462368331588316 3.8811211582795146 35.0704419387138 0 1 1
2830 920 2 0.24746 2.525005319559578 2.99948286195694 31.458795660835563 1 0 0
95 28 2 0.24746 4.449365536044777 6.165114495196502 37.142599988360544 0 1 -3
1615 515 2 0.24746 1.6568897724348262 6.866438597985506 33.10199363773205 0 -2 -1
481 140 1 0.43128 5.616787048757895 7.7616114764771975 30.735306720416354 0 -1 0
2589 839 1 0.43128 6.543674280563817 2.4668593022786673 29.777400135370673 1 0 -2
2751 893 1 0.43128 3.3884639857004353 7.641610434592445 30.872021088449113 -1 -1 1
1516 482 2 0.24746 9.77768928672452 8.919214840977652 33.96299988157092 2 3 0
2831 920 3 -0.67874 3.691833097247103 2.3372702211829335 30.976546444438114 1 0 0
2587 839 2 0.24746 6.410240284358783 4.277903016608485 29.056948263195867 1 0 -2
709 213 2 0.24746 7.721703715680093 4.252731690985323 38.958178893259614 -1 -1 -2
1167 365 1 0.43128 6.417245109571077 3.0869510997883474 34.27884166749111 1 0 -3
53 16 7 -0.69711 1.9961102943284426 5.32503310623085 39.72403903030218 0 -2 1
1616 515 3 -0.67874 2.7976132601646966 7.3867892350096405 32.42245727683422 0 -2 -1
1792 574 2 0.24746 6.358504874733565 10.679895395190586 36.13713855571456 1 -1 0
710 213 3 -0.67874 7.122446000839714 3.13216150936082 39.60745943486688 -1 -1 -2
2641 857 2 0.24746 3.662129501547273 10.384296106999448 34.27100793043415 3 1 0
1165 365 2 0.24746 5.892351314456832 4.323125797173413 32.86074593540406 1 0 -3
1126 352 2 0.24746 9.11194593106891 5.177403382906806 31.38372750710031 -2 1 2
233 68 3 -0.67874 5.996084746941225 3.590886033141214 41.84960412021083 1 -1 0
2643 857 1 0.43128 4.873126676988705 9.003837320342738 34.92526909888308 3 1 0
112 33 4 0.44151 7.35852012269969 8.144857844681383 29.441988994731666 0 1 -2
1794 574 1 0.43128 6.827842927803412 8.806565435548135 36.42716705545544 1 -1 0
1617 515 1 0.43128 3.1907327245417907 8.063725869451567 32.96797166291029 0 -2 -1
2030 653 3 -0.67874 3.20999365573139 3.539078564231647 41.416192306130355 0 0 -2
1448 459 3 -0.67874 1.8456978195328375 11.173200122226708 37.956973653996315 0 -2 1
2642 857 3 -0.67874 4.256133151012028 9.0904667001048 34.2035742773423 3 1 0
862 264 2 0.24746 4.492739705502031 12.333169421298114 8.011383398726352 1 -2 0
2479 803 2 0.24746 1.010819260394593 16.055380886852177 7.2760554698367415 3 0 2
2013 647 1 0.43128 8.0553073513064 15.652917772045651 10.704304438081243 0 1 3
2731 887 2 0.24746 9.603898056122285 20.39729661392493 8.536629167422964 0 -2 0
1070 333 3 -0.67874 1.518229377799158 13.031829406072104 12.183320601785997 0 0 1
2834 921 3 -0.67874 7.223011352985074 14.008480161253276 9.823938471018467 2 -2 -1
1925 618 3 -0.67874 1.4101912663267462 19.16218925666032 2.962858896417724 1 0 1
209 61 2 0.24746 8.380057266679799 20.744027571415515 13.663575046615177 -1 -2 2
2012 647 3 -0.67874 8.067424148866746 16.61036800541718 10.669967999424673 0 1 3
542 157 1 0.43128 8.703160624202624 21.24044650683119 2.7621175346421847 0 3 -1
1334 421 3 -0.67874 3.984729904120964 19.51923878715728 3.8291422720644146 0 -1 -1
1934 621 3 -0.67874 10.683256116428566 18.889561820722385 5.488781549051083 1 -1 1
273 80 3 -0.67874 3.18099711895548 15.209362757357129 2.2163685484478677 0 0 -1
2456 795 3 -0.67874 4.273743371200763 11.999800342291726 11.461842583478168 2 1 1
739 223 2 0.24746 8.292111609035334 12.991774712592683 5.09143664214595 1 1 -3
2485 805 2 0.24746 4.3118444896374335 16.613512054091824 8.965032548871116 0 -2 3
1714 548 2 0.24746 8.00277805342976 14.659662793927685 13.994097006830458 2 0 2
863 264 3 -0.67874 4.854938771934864 13.167357139212765 9.108202713277379 1 -2 0
2944 958 2 0.24746 9.512671929628526 12.279110492127497 1.500385250961545 1 -2 4
2833 921 2 0.24746 7.962035122187797 12.987814748454802 9.15810122245314 2 -2 -1
1071 333 1 0.43128 2.440682506000676 12.77406087256762 12.145935010243184 0 0 1
2732 887 3 -0.67874 10.105187337646054 21.370945848926663 9.448224759944228 0 -2 0
272 80 2 0.24746 2.844793389245798 14.752122227745472 3.5237980260413977 0 0 -1
2582 837 3 -0.67874 5.919749606159236 15.065488745136477 1.657200595432379 1 1 1
1363 431 2 0.24746 4.411203758301134 19.09743631935172 13.926193829433815 1 0 0
21 7 5 0.2556 6.4398402518388576 20.034553613086917 10.142597938864194 0 -4 -2
1335 421 1 0.43128 3.1590794826237203 19.250770234526435 3.4255098115214375 0 -1 -1
22 7 7 -0.69711 6.437702407034619 18.776393239301765 11.311083927523468 0 -4 -2
1134 354 1 0.43128 11.20860828623448 18.037796222162417 6.808543557074731 2 0 1
306 89 6 0 1.0570182187318495 18.706707549905545 12.331881198400692 0 0 1
23 7 4 0.44151 6.957814331150708 18.05872427060259 10.93371261150632 0 -4 -2
1926 618 1 0.43128 0.8849598799483547 19.961578641797 3.0058619500605186 1 0 1
2486 805 3 -0.67874 3.3700907999882017 16.41004559755694 10.015803768069208 0 -2 3
1935 621 1 0.43128 11.000142105892058 19.642015421279098 4.987081593935798 1 -1 1
2487 805 1 0.43128 3.7521444374190676 15.805204510582659 10.651888966008388 0 -2 3
2581 837 2 0.24746 6.914812763930422 15.65177902213379 2.492803786200372 1 1 1
274 80 1 0.43128 4.132748114484297 15.160096855576462 2.112920377716735 0 0 -1
740 223 3 -0.67874 9.08784799605753 11.814486585455477 4.9839230630079365 1 1 -3
541 157 3 -0.67874 8.803706988632106 20.50706780242026 2.1561499968553735 0 3 -1
540 157 2 0.24746 7.528314217062862 19.897813259150364 1.9688639186693848 0 3 -1
1365 431 1 0.43128 5.465115390175495 18.015185523097493 12.690438951551558 1 0 0
2011 647 2 0.24746 8.327250525143072 17.009818749713396 9.326524276621496 0 1 3
864 264 1 0.43128 4.4836511118789675 12.794289712835814 9.9088594979458 1 -2 0
1364 431 3 -0.67874 4.864506561945891 17.84663110856003 13.414935851604948 1 0 0
2835 921 1 0.43128 6.311990563831393 13.95832824572702 9.537805188783311 2 -2 -1
1933 621 2 0.24746 10.06456922614258 17.974422398640833 4.588435417954846 1 -1 1
3026 985 3 -0.67874 4.143612121274135 15.350672277869052 13.670552261079221 4 0 0
717 215 1 0.43128 4.4448620370729035 21.112871286179292 4.317347288626687 2 -2 2
1333 421 2 0.24746 4.572606731474984 18.379798041867662 4.452624639941098 0 -1 -1
2945 958 3 -0.67874 10.725856631682374 13.017543809296576 1.3808727478915381 1 -2 4
24 7 6 0 5.32405857554558 21.17665101192495 11.319827751713964 0 -4 -2
2455 795 2 0.24746 5.201745576898525 12.687143342187335 12.30005129947914 2 1 1
3027 985 1 0.43128 4.308331452241609 16.287688316639482 13.558628540932059 4 0 0
1716 548 1 0.43128 6.07764464327188 14.998773545423909 13.933415897643862 2 0 2
1715 548 3 -0.67874 6.794930265841176 15.181693336396552 14.545435964411105 2 0 2
3025 985 2 0.24746 3.1507789660738523 15.18420435132761 14.679322934960725 4 0 0
1085 338 3 -0.67874 11.187562745563362 21.35236966697345 4.493480600832262 0 -1 -1
1938 622 1 0.43128 7.012688629889119 17.32988251666761 14.690566882114636 -1 0 1
1645 525 2 0.24746 11.15730951143254 17.714016666160674 12.326131277376914 2 -1 -1
1069 333 2 0.24746 0.9812002225031072 12.97860667116974 10.863874490062816 0 0 1
987 305 1 0.43128 0.8754750579751178 20.92482522165786 13.487719937446782 1 -2 0
120 35 6 0 4.476237813336593 11.471833938724872 2.971950433194414 0 -2 1
2133 687 1 0.43128 7.794726823790563 13.585802983347419 27.334207306861998 0 0 2
1145 358 3 -0.67874 3.32781802665183 18.133846134394627 27.140341953566153 2 0 -2
1072 334 2 0.24746 6.683268367730606 17.548525142975432 21.201063372949267 0 1 -2
747 225 1 0.43128 2.71789745930896 13.88977943516299 26.46190097814234 -1 0 0
2673 867 1 0.43128 3.278674981203859 18.20767440271501 25.159591070387314 3 -1 1
195 57 5 0.2556 5.336421425589132 13.76415711593626 24.67825510341244 -1 0 0
1547 492 3 -0.67874 8.613179680940853 13.941544736559123 25.653322207023308 -1 3 0
2020 650 2 0.24746 7.229173316868624 14.215755625046734 17.921679172137882 0 -1 1
2096 675 3 -0.67874 6.7511301072502565 20.78244347627974 21.03392818727507 0 0 0
745 225 2 0.24746 1.223935850980777 14.549439841391829 25.390089710070672 -1 0 0
2591 840 3 -0.67874 3.6850115766497553 16.945146524894298 19.73213312058106 -1 2 3
69 20 6 0 7.288233189933297 18.228641480521674 25.712884749046957 1 -2 0
1644 524 1 0.43128 1.818828755927275 16.876687534067294 20.09084189468084 0 2 -1
66 20 5 0.2556 6.1671916852479844 19.225066694102846 24.414783908258674 1 -2 0
1073 334 3 -0.67874 5.628654179020181 18.379219004386936 20.721866494672508 0 1 -2
2097 675 1 0.43128 7.674357281752216 20.819592292991533 20.790792674447154 0 0 0
1660 530 2 0.24746 2.26938195676509 21.431340865689013 17.69007695909854 1 -1 1
807 245 1 0.43128 9.626316684431185 19.852118617038418 18.57244980086464 -2 2 1
1173 367 1 0.43128 7.265721989463366 20.94257567702669 26.609693254208487 -1 0 2
1171 367 2 0.24746 8.508192960716453 20.50806693464049 28.055517432130028 -1 0 2
1546 492 2 0.24746 10.014894628864072 13.932955654085635 25.92328193834549 -1 3 0
2022 650 1 0.43128 6.491800335182764 14.591939265013039 16.155932071335524 0 -1 1
216 63 7 -0.69711 10.519664908159772 17.68877050758841 24.46052885717797 -1 2 -1
1074 334 1 0.43128 5.988046856037218 19.246778542952462 20.532652519362507 0 1 -2
2672 867 3 -0.67874 2.9867183287697845 18.578251076395745 24.32672885858181 3 -1 1
1548 492 1 0.43128 8.468237682119753 13.542294347844631 24.79277993868861 -1 3 0
1144 358 2 0.24746 2.409763328730144 17.249840053925883 27.778387971543374 2 0 -2
628 186 2 0.24746 6.236590558759661 20.978948357940247 17.686232314787322 1 -1 2
2671 867 2 0.24746 2.0163103700520217 17.70250192597767 23.757346086733822 3 -1 1
2021 650 3 -0.67874 6.429019810020316 13.882137432316004 16.79004505687508 0 -1 1
1114 348 2 0.24746 2.6951186546834025 21.144511550022035 21.656785538008492 -1 0 2
2164 698 2 0.24746 7.393245873724115 12.952451278771132 21.868604999438755 0 1 1
1115 348 3 -0.67874 3.2341309908100238 21.022756672557026 22.971761743898615 -1 0 2
67 20 7 -0.69711 5.791758957536928 20.405514399246034 25.60208644757366 1 -2 0
806 245 3 -0.67874 9.623448852722408 18.898690678675347 18.58557872189475 -2 2 1
2592 840 1 0.43128 4.457156140478247 17.208357324695516 20.228282755067635 -1 2 3
1146 358 1 0.43128 3.9011047343863106 18.504702522690923 27.804014530350468 2 0 -2
2495 808 3 -0.67874 1.4843266263756856 11.579371921981242 23.955819124521437 1 0 1
2590 840 2 0.24746 4.08650320508806 16.642931719972747 18.397591637768944 -1 2 3
2050 660 2 0.24746 0.881940073624249 14.18673382998315 18.833318877938083 1 0 2
2165 698 3 -0.67874 8.231010994076458 13.310313982131703 22.96599921882533 0 1 1
196 57 7 -0.69711 4.168178105915334 13.004117301086985 25.679910492721827 -1 0 0
198 57 6 0 4.911911750289886 15.532968683909054 25.468347779231475 -1 0 0
805 245 2 0.24746 10.823889921382099 18.43456993387787 17.97488471040648 -2 2 1
218 63 6 0 9.600205627594832 19.361882993331882 22.629067938264484 -1 2 -1
215 63 5 0.2556 10.565630872281384 19.401648261792438 24.36139262616345 -1 2 -1
2166 698 1 0.43128 8.874190020415215 13.954572283653333 22.659021066084296 0 1 1
746 225 3 -0.67874 1.8921672920965642 14.344363041106261 26.632949195893353 -1 0 0
197 57 4 0.44151 4.193294085155321 12.06742144160813 25.459497112193205 -1 0 0
1640 523 3 -0.67874 9.671664055616372 15.37528631763579 22.82644181168917 0 -2 0
1937 622 3 -0.67874 7.515460151253121 17.96819176340942 15.199345248733323 -1 0 1
2132 687 3 -0.67874 7.441233515656735 13.622013405549769 28.224241693900414 0 0 2
1116 348 1 0.43128 3.2027225745626122 20.10081813567053 23.227636624365612 -1 0 2
1356 428 1 0.43128 4.825565650193042 20.31081191125395 27.22436306799612 0 -2 0
991 307 2 0.24746 3.349823433990699 13.055544749485769 21.664389335901372 1 2 1
1936 622 2 0.24746 7.238383931971843 17.760816888148753 16.581895823622293 -1 0 1
1172 367 3 -0.67874 8.066963972111555 21.327062176386406 26.974120736913395 -1 0 2
993 307 1 0.43128 1.5012062765306708 13.38028595292272 21.13135374042465 1 2 1
992 307 3 -0.67874 2.0033874096176927 12.636942414979323 21.461975002176008 1 2 1
1641 523 1 0.43128 9.769021229848203 16.193247970325324 23.313290231215568 0 -2 0
68 20 4 0.44151 5.213276472775694 21.045079925080035 25.17258698776046 1 -2 0
1181 370 3 -0.67874 9.357594796759049 21.596974272066515 18.72766641057091 -1 1 1
217 63 4 0.44151 10.963142788370511 17.454455876990636 25.282838639782 -1 2 -1
1643 524 3 -0.67874 0.8857557091382875 17.0711686729395 20.178030489500667 0 2 -1
1639 523 2 0.24746 10.921197759082476 15.060257305035442 22.218331056822546 0 -2 0
2496 808 1 0.43128 1.5651623016567306 11.924221906969692 23.071013187168546 1 0 1
1355 428 3 -0.67874 4.795343544378353 20.238194554942158 28.17849400682973 0 -2 0
630 186 1 0.43128 7.343600652928109 21.440920590009075 16.14423479058412 1 -1 2
210 61 3 -0.67874 8.105878332462762 20.6333334023969 15.058053450806524 -1 -2 2
1737 555 1 0.43128 11.194692684056395 17.009072009246722 27.770939874238408 1 -2 0
211 61 1 0.43128 7.91732020287692 19.71600205434647 15.258373145022741 -1 -2 2
2083 671 2 0.24746 11.175754200984722 15.019111750395076 15.78910381387163 1 2 -2
2317 749 2 0.24746 10.503376434381613 15.07974294309936 29.66416276756819 2 1 1
778 236 2 0.24746 2.242439971552863 13.397232887790851 40.18228592901039 1 3 -2
430 125 3 -0.67874 10.283332727478438 19.97185894583429 39.298761016563375 0 1 0
1663 531 2 0.24746 2.951029691837347 21.708772116087147 41.95531678403272 2 0 -3
1729 553 2 0.24746 2.9297825695249267 17.886769004198435 40.486058147089395 2 1 3
1449 459 1 0.43128 1.739243462592467 11.97809900495222 37.44789055541328 0 -2 1
658 196 2 0.24746 1.1016863425083137 20.010565285383063 30.49595553940923 -1 1 1
676 202 2 0.24746 3.4324232154194165 13.645715863039758 29.837243787849616 1 1 -1
1730 553 3 -0.67874 1.5730234823274636 17.692362965583914 40.09703207295601 2 1 3
633 187 1 0.43128 7.480112622523285 16.75798835425386 35.281974823634755 2 1 0
2093 674 3 -0.67874 4.016738549575869 14.743189100635844 36.56751747875006 1 1 -1
1329 419 1 0.43128 3.510739579300455 18.456033413367244 33.07236119082438 1 0 2
2523 817 1 0.43128 6.5549009544234345 14.814869753010374 34.55469450997613 -1 3 -1
2521 817 2 0.24746 5.771038482794065 13.626766598476499 33.217906471019695 -1 3 -1
1328 419 3 -0.67874 4.350237086454468 18.913476685492245 33.05416580474534 1 0 2
2886 938 1 0.43128 5.673039515037442 18.317302009075945 34.444531568662285 4 1 -1
2709 879 1 0.43128 6.7829078101281945 14.835660384761972 29.16918418685178 2 0 0
733 221 2 0.24746 10.03084307230078 18.415608678069113 32.204780523857394 2 1 -1
734 221 3 -0.67874 11.177693019399506 18.23685194681008 31.377231016206856 2 1 -1
1277 402 3 -0.67874 9.959819009469733 14.7213276552436 40.197653633403505 1 0 -2
652 194 2 0.24746 1.128613168196867 21.615137284011293 34.5457177223913 1 3 -1
1156 362 2 0.24746 10.584792208704062 12.36882728126355 31.839809806612507 0 1 0
2255 728 3 -0.67874 11.259331497055804 13.096201264399483 35.272575500722525 2 2 -1
901 277 2 0.24746 5.157086145955268 21.336207173816486 39.00218566884551 -1 0 -1
632 187 3 -0.67874 7.774648355174787 15.846738537931751 35.23448852222525 2 1 0
1276 402 2 0.24746 10.685074376012398 15.721025259039676 39.485341326163905 1 0 -2
431 125 1 0.43128 9.439184538353647 19.526358396828083 39.25068613612338 0 1 0
1031 320 3 -0.67874 2.050917597454599 17.467016108147092 33.78755375301563 0 0 1
1717 549 2 0.24746 6.681344452683896 13.396220072064194 39.27755226506876 2 -2 -1
1207 379 2 0.24746 7.155678359432273 17.7788006457541 38.81274041982704 2 0 0
458 133 4 0.44151 2.1120874437234964 13.837009667261249 36.47272123841499 0 -2 -2
1718 549 3 -0.67874 7.110226015275771 14.507919954028472 40.06039908983293 2 -2 -1
429 125 2 0.24746 10.063568866643102 21.311424635080773 39.73133786450592 0 1 0
1731 553 1 0.43128 1.213565534725615 16.971184310178877 40.60561211595953 2 1 3
2885 938 3 -0.67874 6.330808071567602 18.286678174067553 35.140577864178084 4 1 -1
631 187 2 0.24746 9.089968188838865 15.82608465861806 34.68554301745152 2 1 0
1032 320 1 0.43128 1.1373558102001564 17.701590593623543 33.6165653809103 0 0 1
1719 549 1 0.43128 8.04363143398571 14.648952558484389 39.90060450762742 2 -2 -1
2254 728 2 0.24746 10.219561691524422 12.601453786213689 36.113271622013826 2 2 -1
2092 674 2 0.24746 4.051752441099584 16.131272548698426 36.89705900814634 1 1 -1
2708 879 3 -0.67874 6.640152500160418 15.543648372991694 29.798037859746366 2 0 0
1208 379 3 -0.67874 7.718749174289067 19.083499090996185 38.92065611495295 2 0 0
1327 419 2 0.24746 4.948962418109729 18.708239456506828 31.778082460176346 1 0 2
1354 428 2 0.24746 4.320672567066602 21.47332034155353 28.709912684436073 0 -2 0