LAMMPS data file via write_data, version 29 Aug 2024, timestep = 1000000, units = real

3000 atoms
3 atom types
2000 bonds
2 bond types
1000 angles
1 angle types

-0.3613669904939627 40.75619699047982 xlo xhi
-0.9622167814104685 40.004146781399406 ylo yhi
-0.9320670599742407 39.87029705995111 zlo zhi

Masses

1 1.008
2 15.011
3 15.999

Pair Coeffs # lj/cut/coul/long

1 0 0.4
2 0.239639 3.7543
3 0.174632 3.03

Bond Coeffs # harmonic

1 1000 1.4246
2 1000 0.9451

Angle Coeffs # harmonic

1 1000 108.53

Atoms # full

812 271 3 -0.67874 4.358563078236388 6.575914383484207 -0.28401359500330614 2 -1 0
2857 953 2 0.24746 9.592432120969539 0.8456184214667841 8.459583878756101 1 0 -1
128 43 3 -0.67874 4.094026698732508 7.868037096326285 12.355406452812922 -2 2 0
156 52 1 0.43128 1.8853085713683653 2.24160676110397 7.554776175967042 -1 -2 0
883 295 2 0.24746 8.681131964300587 7.002407435856397 11.529129008807153 -1 1 -1
2863 955 2 0.24746 3.1836477236810143 2.3306368409825957 4.833724100473237 -1 3 -1
154 52 2 0.24746 2.3923708127991774 2.0147663454628577 9.426744126549686 -1 -2 0
2014 672 2 0.24746 0.028783491818519358 4.053452741587759 6.498278369637739 1 -1 1
241 81 2 0.24746 1.7397061390762212 8.642001288524432 10.319225213561024 0 -1 -1
1159 387 2 0.24746 0.6294235373674631 5.368486154169547 10.385652913678344 -2 -1 0
1990 664 2 0.24746 3.636587379710621 6.676049174681997 6.613288365833326 2 -1 1
2008 670 2 0.24746 6.097804244836713 5.182049704709481 3.0146789146506894 -1 -1 1
2926 976 2 0.24746 5.4178647529917345 5.432145871077765 10.054648415490858 3 -2 0
2515 839 2 0.24746 8.4020904858079 1.6654550571256777 4.876090124616197 -1 0 1
2110 704 2 0.24746 6.664573834423242 8.545049045746667 5.1504348553250745 -1 0 1
2112 704 1 0.43128 8.344415471323563 7.66586095375613 5.619650139647106 -1 0 1
1428 476 1 0.43128 6.297783647484307 2.686220836597786 -0.7345544156524222 2 -1 0
567 189 1 0.43128 3.9269279429781436 4.756747305733698 2.036527359970847 -2 1 0
741 247 1 0.43128 4.518659193613652 0.3939142937379534 3.5598679824837234 1 1 -1
2016 672 1 0.43128 -0.10440078960247945 2.163479438205918 6.016499624651164 1 -1 1
2083 695 2 0.24746 6.123069979085874 2.0354443858693374 7.999072003637169 -1 1 2
2084 695 3 -0.67874 5.745103413453816 1.009506867019674 7.083837996712864 -1 1 2
1366 456 2 0.24746 8.506609655800295 5.10789741359288 6.784877407738118 3 2 -1
2191 731 2 0.24746 3.285859482627377 1.5817508748595959 0.02385323661778249 0 2 0
565 189 2 0.24746 2.2549683893869013 5.6120861390861485 2.5667361474350727 -2 1 0
363 121 1 0.43128 6.254478743611032 0.40331373571225626 10.948934997104892 1 0 1
2015 672 3 -0.67874 0.38249683587352235 2.681260621349027 6.662012579269224 1 -1 1
2111 704 3 -0.67874 8.013272138117268 8.564719537678553 5.6126355673301855 -1 0 1
2865 955 1 0.43128 3.452925099113184 2.8997382662030824 2.9871678804487702 -1 3 -1
2010 670 1 0.43128 5.9434459600721095 4.039792772179703 1.4414074360311977 -1 -1 1
1367 456 3 -0.67874 8.950796123711585 6.009356588502969 5.773927035765773 3 2 -1
1991 664 3 -0.67874 2.8899038551534537 7.10943398420968 7.747094760128636 2 -1 1
155 52 3 -0.67874 2.6326445085119574 1.8766465098346226 8.028585976788994 -1 -2 0
1128 376 1 0.43128 -0.16912982083971054 8.251904809240312 2.9396425490957583 2 1 0
1426 476 2 0.24746 8.027277482512385 3.3712713760469875 -0.13957265852869882 2 -1 0
2009 670 3 -0.67874 5.464692724421436 4.782257701722782 1.8032691309253543 -1 -1 1
740 247 3 -0.67874 4.84180553697359 -0.4959799848193285 3.698640216361354 1 1 -1
2516 839 3 -0.67874 9.685744759512557 1.9346054668282786 5.435305196684128 -1 0 1
1798 600 2 0.24746 8.727270630882419 9.028649230920925 1.547211089411563 1 1 3
566 189 3 -0.67874 3.0150306712127186 4.487237097577482 2.13481340880259 -2 1 0
1425 475 1 0.43128 4.704565768007624 8.662921299734178 -0.5384823715295767 1 1 -1
2864 955 3 -0.67874 3.8500357471517654 2.260944522607329 3.576375253574663 -1 3 -1
2244 748 1 0.43128 7.698134518823668 1.9924485186264627 12.165087586381905 1 -1 1
2927 976 3 -0.67874 4.416745687594701 6.442475152835748 9.975284553041805 3 -2 0
1767 589 1 0.43128 7.671958391792366 -0.43360897949534694 12.541635888676012 1 0 0
2928 976 1 0.43128 4.371745723008214 6.89119109591903 10.817765281457893 3 -2 0
243 81 1 0.43128 1.9754790074938726 8.178326069864891 8.437098533545221 0 -1 -1
813 271 1 0.43128 4.744620664952265 6.151580438390592 0.4807565724326086 2 -1 0
2243 748 3 -0.67874 8.337867564974882 2.688612696405089 12.320523023099925 1 -1 1
884 295 3 -0.67874 9.85111827522262 7.0044090656324025 10.713872811683151 -1 1 -1
739 247 2 0.24746 5.94903701429115 -0.714614637277765 2.826902147562611 1 1 -1
2085 695 1 0.43128 4.8145912854579525 1.1028574864308793 6.893074141773664 -1 1 2
1992 664 1 0.43128 3.322382651299855 6.783022355839581 8.53631526930381 2 -1 1
744 248 1 0.43128 9.315256054387833 3.613524846254455 11.383369775875769 0 0 3
2837 946 3 -0.67874 0.5577390833718953 -0.7484935725912367 11.645830798541178 -2 1 1
361 121 2 0.24746 5.455291052317328 1.1646610182046313 12.562681611473565 1 0 1
362 121 3 -0.67874 6.560461439485875 0.9281965172198727 11.691868048004538 1 0 1
1427 476 3 -0.67874 6.688249298378189 2.9451678107502133 0.10161750080311727 2 -1 0
1368 456 1 0.43128 9.795009807422328 5.702381324486103 5.443867177564034 3 2 -1
242 81 3 -0.67874 1.4216378992743475 8.779485714114434 8.936510065251685 0 -1 -1
2238 746 1 0.43128 3.9213019758684355 4.6569194604446515 13.360436221738624 1 0 0
2671 891 2 0.24746 3.362945882871352 0.6571091885624403 21.721267706426477 1 1 0
2449 817 2 0.24746 8.590874104017121 6.0076387526138495 18.844238715595804 1 -2 2
129 43 1 0.43128 3.8631534070204774 7.079722893577253 12.84781049912161 -2 2 0
1964 655 3 -0.67874 8.68069678781092 2.7094606098196268 17.14362027114073 1 0 2
2658 886 1 0.43128 3.444945289704576 9.102024825074142 23.7499506084211 1 1 0
2455 819 2 0.24746 8.726209023464353 -0.04912479247772905 23.136898684267596 0 -2 1
1638 546 1 0.43128 5.787494678358562 4.901655659956284 25.27666960090949 0 1 2
1849 617 2 0.24746 0.021046710072746777 0.3158678152120098 24.800423582053252 0 0 0
1445 482 3 -0.67874 2.7759357474366273 3.2717367867182823 13.72913769660479 -1 1 -1
657 219 1 0.43128 6.682029621307437 0.0742824564225526 17.51119290098093 0 1 0
2412 804 1 0.43128 5.380034886050589 3.3466622243067308 20.511106150435964 -1 1 -1
2216 739 3 -0.67874 9.619205369882453 6.269983599587358 24.99944164606208 0 2 -2
2236 746 2 0.24746 5.0840646242256655 5.229855849300277 14.81923834928568 1 0 0
508 170 2 0.24746 -0.10088812539531283 2.9273788186994842 20.25528566446188 1 -2 1
344 115 3 -0.67874 -0.13632608698365067 6.4647563728803465 19.931568836113534 2 2 0
2215 739 2 0.24746 8.729621907809165 5.981019627305223 26.075647987574385 0 2 -2
2451 817 1 0.43128 8.69126977292966 4.473575907947212 17.638499804244738 1 -2 2
1041 347 1 0.43128 3.7942195545415833 -0.1483489622191021 23.995321459391665 0 3 0
656 219 3 -0.67874 6.690577477417919 0.9939619044259034 17.235778308090183 0 1 0
80 27 3 -0.67874 1.782657784060369 2.9140982510977707 16.280762042600045 0 2 2
1637 546 3 -0.67874 5.503268671261717 5.018222935845807 24.367062727734943 0 1 2
2410 804 2 0.24746 6.783084465045888 2.013699150228676 20.273079630791162 -1 1 -1
81 27 1 0.43128 0.8943251826897911 2.5558967752049124 16.245599237398928 0 2 2
2329 777 2 0.24746 3.361585749971443 9.10483549701897 16.99749569472226 -1 2 1
578 193 3 -0.67874 4.72473945153553 5.162661740931435 20.171531908144182 0 -2 0
579 193 1 0.43128 5.333303906955244 5.6385052902641295 20.735130009673686 0 -2 0
1446 482 1 0.43128 2.400256808410853 3.2615893746119573 14.609234195464145 -1 1 -1
655 219 2 0.24746 5.388545856451968 1.3350935910582824 16.763386280763463 0 1 0
1477 493 2 0.24746 6.95358460803465 7.382140498260039 22.76141711801859 -2 3 -1
1456 486 2 0.24746 7.5838141088709055 7.9886248998486415 15.371125703219441 1 -1 -2
2788 930 2 0.24746 0.07890172854198996 4.305901547644395 24.071400630234216 3 3 -1
1965 655 1 0.43128 7.942666522278804 2.1013841929380974 17.09895021580016 1 0 2
2673 891 1 0.43128 5.126357139160432 1.1680853343096032 22.380936484009197 1 1 0
1444 482 2 0.24746 1.988569698475899 2.428785901309872 12.891906873452895 -1 1 -1
577 193 2 0.24746 3.5230365684494327 5.922959810367167 20.0629149464236 0 -2 0
2237 746 3 -0.67874 4.294257238464004 5.484019445310558 13.660702485709788 1 0 0
2672 891 3 -0.67874 4.500410542576008 0.4698377642816849 22.560442494903114 1 1 0
1478 493 3 -0.67874 6.031681867250316 6.386236568867487 22.320737757250534 -2 3 -1
1636 546 2 0.24746 4.710233759907692 3.8928344472695082 23.99493228607052 0 1 2
345 115 1 0.43128 -0.3192617718222774 7.1274162931289595 20.595208671566304 2 2 0
1040 347 3 -0.67874 3.4432506339761195 -0.509623194037016 24.81234572555601 0 3 0
2411 804 3 -0.67874 5.855122019993908 2.7413351751309314 21.07438482704408 -1 1 -1
2656 886 2 0.24746 2.419353235307829 7.441689846016221 23.823429157345018 1 1 0
393 131 1 0.43128 4.678838099018142 8.058078039289617 25.340328863405833 0 -2 -2
2450 817 3 -0.67874 8.97496259441228 5.388869857621102 17.61834507102714 1 -2 2
1851 617 1 0.43128 1.4984323304195801 -0.8172242465692782 25.383100273139856 0 0 0
2657 886 3 -0.67874 3.1413232064335164 8.509185734134052 24.436880057228667 1 1 0
1479 493 1 0.43128 5.808572217371282 5.827400178949847 23.069409669396048 -2 3 -1
79 27 2 0.24746 1.9311412705804694 3.634463602425332 17.501532537561694 0 2 2
343 115 2 0.24746 -0.06472249702545702 7.104621247755391 18.660757460637612 2 2 0
219 73 1 0.43128 9.778996714369221 7.859385944913068 25.25228629737275 -3 -4 0
2242 748 2 0.24746 8.521500847017967 2.8260566364461 13.727991017433824 1 -1 1
127 43 2 0.24746 4.370236974029954 8.91396472308828 13.284493110181787 -2 2 0
392 131 3 -0.67874 5.2554562670800555 7.702078623549605 26.012759352714173 0 -2 -2
1063 355 2 0.24746 9.477340103604359 4.271401438349288 22.320091079103378 0 2 2
1850 617 3 -0.67874 0.5444968600748223 -0.8813259294437025 25.367531049885958 0 0 0
1598 533 3 -0.67874 -0.08631658745975929 8.195684710944446 21.97516973622762 -1 2 1
2170 724 2 0.24746 0.5824256809870652 6.585923353087345 15.27764182486036 1 0 -1
1963 655 2 0.24746 9.79493766137235 2.0253334428219407 17.712367701097364 1 0 2
1039 347 2 0.24746 4.537655101948822 -0.895622223070029 25.64169847803838 0 3 0
1599 533 1 0.43128 -0.10365022037207922 8.000507849204375 22.91406438760434 -1 2 1
2217 739 1 0.43128 9.686181387724153 5.492014221012629 24.44489825545153 0 2 -2
2192 731 3 -0.67874 3.2924817944708558 2.192178023425368 39.537353908901025 0 2 -1
1626 542 1 0.43128 1.373742812653868 -0.23900322776369032 30.293403344882993 2 0 0
677 226 3 -0.67874 6.733420962256445 6.617982441164145 35.83826172976782 1 -1 0
1369 457 2 0.24746 5.717866728240454 3.1363867495778726 36.970168600924694 1 1 0
2913 971 1 0.43128 4.9537019931637 0.42216963417004294 32.90106924819888 1 0 -1
2911 971 2 0.24746 6.785470396512577 0.7511541396763031 32.31004712377735 1 0 -1
2994 998 1 0.43128 7.203716890285688 6.837367803164371 37.529027051432465 1 2 0
2193 731 1 0.43128 2.409351981487525 2.141597603744104 39.17383764846841 0 2 -1
778 260 2 0.24746 8.7458299574262 0.014825538393590465 38.5325449758639 1 2 -1
842 281 3 -0.67874 -0.21036556612085422 -0.6940962474483385 30.94964663599101 -2 1 0
2716 906 2 0.24746 0.4198577990332907 5.188923150090869 35.12823563170409 2 -1 -2
678 226 1 0.43128 7.064085322218403 6.664564587956175 34.94132209199958 1 -1 0
597 199 1 0.43128 9.046690655350675 0.5537111291306289 27.854140366362444 0 -1 0
1371 457 1 0.43128 4.719165241210381 2.5737343439591687 38.54825076916053 1 1 0
2531 844 3 -0.67874 0.1017168167266817 8.551055045512912 29.977982725180457 2 0 -1
1625 542 3 -0.67874 2.2256894323332124 -0.17811702561311116 29.868927659923887 2 0 0
1585 529 2 0.24746 5.5898600796430165 4.998016886812918 28.338581409752436 1 0 2
1624 542 2 0.24746 2.019142025810403 0.04639342960643722 28.47642336732235 2 0 0
1576 526 2 0.24746 8.859965972590013 2.6867130755273165 34.87220061807065 0 1 -1
1077 359 1 0.43128 4.827245523526842 8.37718789520044 32.69605002773507 -1 0 -2
1153 385 2 0.24746 6.83398052837168 -0.4857941400968755 28.63191961458437 3 0 0
354 118 1 0.43128 5.965942551035018 6.174065164783977 32.61050737199092 0 -2 -2
1587 529 1 0.43128 5.552265521128824 6.123326541488542 26.742535425312482 1 0 2
2532 844 1 0.43128 -0.2685950197857041 9.213426125363066 30.56281429497582 2 0 -1
1778 593 3 -0.67874 1.6627672807728913 6.453978642186344 30.04828535695584 -1 1 0
1930 644 2 0.24746 1.9975747826530212 4.891470966186243 26.906409503843456 -2 3 0
2080 694 2 0.24746 2.698768616026293 8.138002815872367 37.149948702822826 2 0 -1
2081 694 3 -0.67874 2.2083984363090132 7.498570068531164 35.97513839687906 2 0 -1
1076 359 3 -0.67874 5.131855935897962 7.621434086496485 32.1959094929135 -1 0 -2
2912 971 3 -0.67874 5.830591067020616 0.2882841604232671 33.262262132372655 1 0 -1
2344 782 2 0.24746 8.20647194308784 9.156320039582578 30.226477873171945 0 1 -2
1314 438 1 0.43128 3.093568083256978 0.2770332736072787 31.46358152492874 1 -2 0
1370 457 3 -0.67874 5.593173086956147 2.9175844723767215 38.372794662319905 1 1 0
1075 359 2 0.24746 4.6943552540238125 7.764934717101131 30.847456921878123 -1 0 -2
676 226 2 0.24746 5.313783400500935 6.496808402256716 35.790119008475585 1 -1 0
352 118 2 0.24746 5.502757378290302 4.277922694415476 32.64232445161822 0 -2 -2
2082 694 1 0.43128 2.7799048413121987 7.731114423291396 35.24166703669066 2 0 -1
2891 964 3 -0.67874 0.7834816113029772 1.9835009833702788 38.106288003527496 0 1 -2
353 118 3 -0.67874 6.443441984005964 5.349611277935345 32.68188527792093 0 -2 -2
1569 523 1 0.43128 8.917779651499758 6.483846105487031 38.84787337318592 0 2 2
779 260 3 -0.67874 9.898992381697328 0.1685932752091306 37.70723645110495 1 2 -1
1931 644 3 -0.67874 1.4968200535878202 4.4436182679599305 28.164220425059842 -2 3 0
1577 526 3 -0.67874 9.49678627593283 2.2826579950263253 36.08229359297637 0 1 -1
1586 529 3 -0.67874 5.705318077124474 5.196207038875437 26.93187879747293 1 0 2
1779 593 1 0.43128 1.1085027786403983 7.225303716632693 29.904912688725023 -1 1 0
1313 438 3 -0.67874 3.557855625712323 0.6283781061290841 32.22479968554498 1 -2 0
811 271 2 0.24746 4.006819133789702 5.567739412871329 39.573179943469526 2 -1 -1
2892 964 1 0.43128 -0.013563918607965963 1.5398586398769236 38.393561114231034 0 1 -2
2993 998 3 -0.67874 7.349670697613744 6.947826413100662 38.469189263464656 1 2 0
2718 906 1 0.43128 0.506466477728599 6.9258615775696315 36.009911475159456 2 -1 -2
1777 593 2 0.24746 1.4944826375731082 6.022735946195014 31.39764216848035 -1 1 0
2717 906 3 -0.67874 -0.17195968057732944 6.279891770228407 35.82884697851861 2 -1 -2
1312 438 2 0.24746 2.5991416909623366 1.1856935262268657 33.120664861889296 1 -2 0
1867 623 2 0.24746 9.344621896742975 8.637738211562043 35.55826705113721 0 1 -1
2992 998 2 0.24746 7.216592285715696 8.331464828291978 38.78740724030456 1 2 0
2890 964 2 0.24746 1.0539259233835883 1.6011686070917865 36.75892025700428 0 1 -2
1932 644 1 0.43128 1.5659201818492443 5.1646711841678545 28.79151118609674 -2 3 0
2670 890 1 0.43128 6.560794529024658 -0.8060436686795514 34.36938949444169 -1 2 -2
841 281 2 0.24746 -0.23571326770882103 -0.927544760523554 32.35631099390831 -2 1 0
1289 430 3 -0.67874 3.4038609252550565 9.158757274284799 33.883648225901695 1 -3 -3
596 199 3 -0.67874 9.724367247918074 1.221667197531167 27.97357973704358 0 -1 0
780 260 1 0.43128 9.664187267390453 0.7127752482756162 36.96000345028193 1 2 -1
1154 385 3 -0.67874 8.196712926987367 -0.8255307079783168 28.382478530590106 3 0 0
391 131 2 0.24746 6.020088140969688 8.771440837134541 26.56476353369234 0 -2 -2
1568 523 3 -0.67874 9.844239437220965 6.247912045045669 38.898985378890146 0 2 2
2808 936 1 0.43128 -0.23158201231071224 3.8798480639473487 28.795214985045952 1 1 0
89 30 3 -0.67874 7.475550370060626 16.980370559287838 9.605792551913806 0 -1 2
1591 531 2 0.24746 6.47272033829239 15.32723016734198 6.9951960747389945 1 0 1
465 155 1 0.43128 7.289348124644284 11.607768657536443 8.929247618572404 -2 -1 2
88 30 2 0.24746 8.669445548518613 16.45258984100354 10.179010070053181 0 -1 2
2239 747 2 0.24746 5.904092265520934 13.447973436345773 1.1956494247486473 1 -1 1
1067 356 3 -0.67874 5.189053747897424 18.408682659881336 7.127180192544275 0 -2 0
2019 673 1 0.43128 4.177291260173226 18.152306634877082 11.557077274124067 3 4 1
1623 541 1 0.43128 6.44800296216326 17.709962780247892 10.790919528368235 0 1 1
1718 573 3 -0.67874 -0.18826210571875132 11.053035438132994 7.964406611077495 -1 -1 -1
1245 415 1 0.43128 6.351446142987182 13.574815980104788 10.446095310947817 -1 -2 0
46 16 2 0.24746 7.757524171140808 12.394603237572957 4.007364931581745 -1 0 0
1391 464 3 -0.67874 7.617798623356503 17.64510578348765 5.187279840272493 -2 1 2
1622 541 3 -0.67874 5.933931260563505 18.37638498452996 11.252061727494818 0 1 1
1532 511 3 -0.67874 1.5879088664618486 16.09464184358636 11.059485500119443 -1 -1 -1
639 213 1 0.43128 7.569312662186167 18.242181958923535 0.16002919300187668 -1 -1 1
1243 415 2 0.24746 5.013450949436533 14.696081727722781 11.31707418107833 -1 -2 0
1799 600 3 -0.67874 9.854889231439332 9.660465163591853 2.1479658449330294 1 1 3
585 195 1 0.43128 8.867305638778578 10.029922647147552 6.599964728007459 -1 -1 1
1003 335 2 0.24746 3.3103292377536513 15.869902298437399 4.10141728824872 0 -2 -2
1244 415 3 -0.67874 6.187806717047677 14.512267171859627 10.531588067257864 -1 -2 0
292 98 2 0.24746 1.8711889126943428 15.462242702795809 7.753381779854779 1 2 2
2018 673 3 -0.67874 3.3771868298981924 18.03748426373045 12.067869240468669 3 4 1
1593 531 1 0.43128 5.425530314439427 15.290437321878322 8.642317508241575 1 0 1
2727 909 1 0.43128 8.831308928847582 12.32761226694191 7.773417429839119 2 -2 1
2442 814 1 0.43128 9.282452702269607 17.01555407281706 5.911846837506168 0 -1 3
1447 483 2 0.24746 3.3025828177858614 12.025894691118074 8.707330247191305 -1 -1 -2
704 235 3 -0.67874 0.26239904639521294 13.95235351676887 1.3170902609248936 1 0 0
2726 909 3 -0.67874 8.710878098015284 12.908018981972623 8.521626923730295 2 -2 1
1390 464 2 0.24746 6.907872639576644 17.40716598500307 3.9742332255780735 -2 1 2
2240 747 3 -0.67874 5.990333132957541 14.82421892832845 1.5590769416901078 1 -1 1
1481 494 3 -0.67874 2.843384521276186 10.80262260685645 4.190103542368349 1 1 -1
464 155 3 -0.67874 6.444518947160697 11.399027810848448 9.323347378233118 -2 -1 2
1005 335 1 0.43128 3.6887108628803853 16.83076192062271 2.4476636597462456 0 -2 -2
294 98 1 0.43128 1.134255594095542 16.534632605264704 9.212470072336888 1 2 2
1664 555 3 -0.67874 4.345030242161408 18.45060603041487 1.2406751432509209 -2 1 1
1482 494 1 0.43128 2.2901778740528083 10.984042559080239 4.950926666482441 1 1 -1
1533 511 1 0.43128 2.113977196906058 16.802018438343705 11.42656224956449 -1 -1 -1
703 235 2 0.24746 0.643425916121469 13.415427605230668 0.05400451769973835 1 0 0
1531 511 2 0.24746 0.6807595887684537 15.640692381182308 12.060890968810389 -1 -1 -1
90 30 1 0.43128 7.115623208213747 16.32941553664002 9.00130648371917 0 -1 2
2241 747 1 0.43128 5.18629930620203 15.066478639355061 2.0173990567542575 1 -1 1
293 98 3 -0.67874 0.9182516475772593 16.377318569444242 8.290934690511584 1 2 2
1392 464 1 0.43128 7.550525329994261 18.57663768476527 5.400352699356023 -2 1 2
1448 483 3 -0.67874 4.261376435762171 12.126523889588025 7.6574906077575235 -1 -1 -2
1004 335 3 -0.67874 3.91516135005244 15.97935808799274 2.817240341280752 0 -2 -2
1800 600 1 0.43128 9.54121967863632 10.372304349576265 2.7059787513387876 1 1 3
67 23 2 0.24746 9.218438111315088 15.980491509225732 1.2533835127847928 0 -1 1
1592 531 3 -0.67874 5.507987856635121 15.876516152462706 7.889739997511917 1 0 1
463 155 2 0.24746 6.667937168179485 10.563408612131749 10.455554387633537 -2 -1 2
2680 894 2 0.24746 0.0448144279060797 17.478946106043526 -0.04112067810946618 1 1 1
1423 475 2 0.24746 3.8801847185946325 9.808531382886446 0.8099002085512932 1 1 -1
1066 356 2 0.24746 3.797676079442976 18.657320344237263 6.949682173649682 0 -2 0
1068 356 1 0.43128 5.328248218544088 17.463218807504717 7.144906243277179 0 -2 0
68 23 3 -0.67874 7.939311838484336 16.521176245546307 0.9322221143904486 0 -1 1
47 16 3 -0.67874 8.76887119461758 11.978735894906526 3.093961067827382 -1 0 0
69 23 1 0.43128 7.274982785775925 15.869771519584361 1.1425863441203594 0 -1 1
1480 494 2 0.24746 4.0760009386685905 11.500742545093022 4.352463003895105 1 1 -1
1665 555 1 0.43128 4.304317583625148 18.279568452962007 0.3021593738192674 -2 1 1
1449 483 1 0.43128 5.107666132440641 11.822716221896357 7.989029197863873 -1 -1 -2
638 213 3 -0.67874 7.775388603017046 19.103092395643714 -0.19746710977875992 -1 -1 1
1719 573 1 0.43128 0.5669981136977552 10.522291402281226 8.222535885624644 -1 -1 -1
48 16 1 0.43128 9.474508160301284 12.618937072642773 3.113099223586345 -1 0 0
584 195 3 -0.67874 9.432667527764437 10.712126829445495 6.964175844604521 -1 -1 1
1556 519 3 -0.67874 -0.18131532894131577 11.324754135934553 5.429545888289151 -1 1 0
1555 519 2 0.24746 -0.3139431403636569 12.535022542771094 4.688005505748453 -1 1 0
2725 909 2 0.24746 9.842297089167175 12.77865610412681 9.379310242048408 2 -2 1
1621 541 2 0.24746 5.69216650856307 19.45904756449434 10.355969740406813 0 1 1
1424 475 3 -0.67874 4.444982340503806 9.58157276303133 -0.4795549268116352 1 1 -1
204 68 1 0.43128 -0.3426467604160237 9.64446583831152 4.890552444912421 -1 -2 0
2676 892 1 0.43128 2.4604573659187485 13.148735859993527 16.641149337858987 3 2 0
2051 684 3 -0.67874 7.107298582478902 10.564397368246476 18.198504892264076 2 1 2
2675 892 3 -0.67874 3.153523156051629 12.544565514682938 16.37246520197923 3 2 0
979 327 2 0.24746 3.540406382389313 14.619695323122658 24.56379662953546 3 -2 1
2453 818 3 -0.67874 0.46977709518105826 9.996670995748913 14.53325314334665 -1 0 -1
981 327 1 0.43128 5.268231556765836 15.1305127107786 23.81044925413323 3 -2 1
980 327 3 -0.67874 4.937462727793059 14.880554653151668 24.673921920977502 3 -2 1
2461 821 2 0.24746 7.793675336277692 12.587447304274795 13.986782395978882 0 -1 -2
1457 486 3 -0.67874 7.072764556645684 9.32029627757264 15.353552305771732 1 -1 -2
952 318 2 0.24746 -0.1210303031110938 14.042289468015953 15.792053196667865 1 1 2
1311 437 1 0.43128 2.717941919521763 18.04248547837379 19.402447241335846 0 0 -1
2330 777 3 -0.67874 2.574444982691691 9.995950823652956 16.210643990037585 -1 2 1
2392 798 2 0.24746 4.254552766348693 10.55943727548137 21.39911505193237 2 0 1
1908 636 1 0.43128 5.534486989032973 17.696008755964105 13.360269024463301 0 0 0
1310 437 3 -0.67874 2.7533524765811084 17.811489009303493 20.332562744886385 0 0 -1
1597 533 2 0.24746 -0.11272925185806623 9.610863801058887 21.808358329921806 -1 2 1
1871 624 3 -0.67874 5.554191161103069 12.32416580542444 23.775703716534064 3 -2 1
1907 636 3 -0.67874 5.888019960645483 17.273438139479047 14.138408879031818 0 0 0
2567 856 3 -0.67874 3.3310399508612685 14.96529457508693 20.702414675234603 2 -2 0
1870 624 2 0.24746 6.856695294583335 12.417474688272955 23.20390895390769 3 -2 1
1872 624 1 0.43128 5.273727291136517 13.200403633305875 24.034826105130346 3 -2 1
105 35 1 0.43128 5.056002123942518 15.547895323742182 21.48510060326441 -1 1 2
2017 673 2 0.24746 3.2484728567478474 19.142468587030326 12.959737703871877 3 4 1
467 156 3 -0.67874 2.805888998278111 18.618687445884248 17.72440908660764 0 2 0
2052 684 1 0.43128 7.523762018986804 11.419377895699514 18.0870710547445 2 1 2
1458 486 1 0.43128 7.0567056832482455 9.649810244673462 16.251698173485796 1 -1 -2
2462 821 3 -0.67874 6.955175957787773 11.471967424579363 13.695237549973614 0 -1 -2
2393 798 3 -0.67874 4.195341336989428 10.279883310198294 22.795252098221294 2 0 1
2394 798 1 0.43128 4.626177806278131 10.995330463710566 23.266328860334 2 0 1
2050 684 2 0.24746 7.630982317293741 9.957043394695633 19.377903073401043 2 1 2
2674 892 2 0.24746 3.9113557505856598 13.15916410428472 15.334422195727914 3 2 0
2314 772 2 0.24746 0.1255016450109145 16.481473855864884 18.98725757726811 -1 -2 0
1926 642 1 0.43128 -0.18959379415710315 10.169770801118748 16.10313765126272 2 -1 0
945 315 1 0.43128 8.909947735974828 13.646056339041328 18.037184979304577 1 -2 0
1906 636 2 0.24746 7.233890661296201 16.890102141302776 13.872265114777598 0 0 0
2566 856 2 0.24746 2.220951319333439 14.130624809694375 21.024137944148187 2 -2 0
104 35 3 -0.67874 5.607257661016534 15.744080419560717 22.237210508458315 -1 1 2
2568 856 1 0.43128 3.013064730333097 15.855382555983724 20.578795083161694 2 -2 0
954 318 1 0.43128 0.5573125997179315 14.626454097062373 17.527687290470148 1 1 2
2331 777 1 0.43128 2.6221744211808504 10.869042403468546 16.602409429113468 -1 2 1
2454 818 1 0.43128 1.3875561595418504 9.857575161644842 14.773269297348794 -1 0 -1
2463 821 1 0.43128 7.069837059610246 10.817337263602578 14.386183106670451 0 -1 -2
103 35 2 0.24746 5.575167873601087 17.149543771146963 22.465542665333032 -1 1 2
944 315 3 -0.67874 8.19774976586642 13.025816145562176 17.88869656693316 1 -2 0
1309 437 2 0.24746 2.508468758409535 18.990158381468262 21.099019816040883 0 0 -1
466 156 2 0.24746 3.291336085529346 17.766435439630868 16.690791199633463 0 2 0
943 315 2 0.24746 7.024977263510831 13.759296639247877 17.544594934473547 1 -2 0
2452 818 2 0.24746 0.4168900767586434 10.976599568949544 13.499555658495547 -1 0 -1
953 318 3 -0.67874 0.8449089151242348 14.024538876142554 16.840559595875824 1 1 2
694 232 2 0.24746 6.741216154120756 19.012758635550952 19.151038748420497 1 -1 -1
1924 642 2 0.24746 -0.17469322992283193 10.467659501497216 18.03315077151516 2 -1 0
1122 374 1 0.43128 2.4651996749286447 9.865475498236446 25.577172386961312 1 0 -1
468 156 1 0.43128 2.666027200770119 19.489723181877647 17.35884030720287 0 2 0
2288 763 3 -0.67874 4.02441385558763 11.008188899614458 38.04281040585117 -1 2 -1
536 179 3 -0.67874 3.5413093157741655 17.63495572619866 39.68412384220008 2 1 -3
2345 782 3 -0.67874 7.673523272797496 10.476466736962367 30.17483428302632 0 1 -2
287 96 3 -0.67874 8.566895624905627 14.388445230113327 37.88954593900547 -1 1 0
668 223 3 -0.67874 2.384316966606408 17.542211086860153 33.80895426952195 1 0 -1
2048 683 3 -0.67874 8.978280860105908 11.595798633492498 37.78249457518051 -2 2 -2
2513 838 3 -0.67874 4.4329825214291 18.19010854607584 35.11765640085234 0 2 -1
2600 867 3 -0.67874 9.343255475424161 17.078893811114714 28.82312136377973 2 1 -1
1022 341 3 -0.67874 0.7479779797953672 12.412186748296595 30.55027862377153 0 2 -1
2512 838 2 0.24746 5.454528203490027 17.203215228894024 35.23479907310913 0 2 -1
1740 580 1 0.43128 6.93440605302344 12.10186552686743 30.52491502647893 2 1 1
1120 374 2 0.24746 3.2429791501262657 11.332516078636278 26.607178786552247 1 0 -1
624 208 1 0.43128 7.401594152978677 17.296176243936813 27.99866527714766 2 0 1
1868 623 3 -0.67874 9.210561897442012 10.035215350133125 35.81129223745913 0 1 -1
1985 662 3 -0.67874 8.602428564604368 19.388620344720906 37.98509366251223 -1 -2 1
2514 838 1 0.43128 3.7526316679376652 17.853744857389657 34.532804251280865 0 2 -1
1021 341 2 0.24746 1.9381516146776052 11.988290971447801 29.889618300837714 0 2 -1
2306 769 3 -0.67874 8.413822890562557 14.234857207453272 33.28425928125124 1 2 -1
2021 674 3 -0.67874 0.8080570395390199 13.594534293339494 36.13154958366671 3 1 -1
2289 763 1 0.43128 3.9298214793025075 10.465956425311859 38.82614605346487 -1 2 -1
630 210 1 0.43128 8.89543522717131 12.41721492752642 33.2326995454023 3 1 2
2970 990 1 0.43128 3.751314906962836 18.91571969729136 36.57467689414385 -1 0 0
2995 999 2 0.24746 1.4018268963440093 16.951194647211306 30.62066735675417 2 0 1
2599 867 2 0.24746 9.01737717540867 16.109059425517685 29.816527828306914 2 1 -1
2049 683 1 0.43128 9.133659457914876 10.817412981845854 37.24647935577593 -2 2 -2
1986 662 1 0.43128 8.118147198636548 19.47124259705172 38.80745348657685 -1 -2 1
2346 782 1 0.43128 8.176574309948744 10.980988430127534 29.537449903631067 0 1 -2
690 230 1 0.43128 -0.03865002568062775 15.084198913237053 29.347053353820197 1 -1 2
1202 401 3 -0.67874 9.193599150754427 11.599827188772467 28.281488378563747 0 0 -2
100 34 2 0.24746 5.966960863589817 11.803685272152599 34.66045618124252 0 -1 0
623 208 3 -0.67874 6.691163068567572 16.876859528267225 27.51356231485083 2 0 1
689 230 3 -0.67874 0.06682039918549354 14.269179312083041 28.85580982871357 1 -1 2
802 268 2 0.24746 3.3264629630117457 17.722515649684137 27.05149817497093 -2 0 0
1618 540 2 0.24746 5.6436448783634505 16.457577454301887 31.454442852055504 -1 -1 2
2022 674 1 0.43128 -0.12394726773465878 13.805089981886049 36.16132846303198 3 1 -1
1349 450 3 -0.67874 1.7515261210316848 15.05036893641288 33.73758921107077 0 2 -1
286 96 2 0.24746 7.5606705813364075 14.738616399108198 38.8367575259073 -1 1 0
1620 540 1 0.43128 6.035365713196129 14.547502964330215 31.337390877473926 -1 -1 2
1984 662 2 0.24746 8.461794185196739 18.05205905919185 37.50986433825757 -1 -2 1
1023 341 1 0.43128 0.29762220903320225 13.039225193820291 29.988675330243595 0 2 -1
1738 580 2 0.24746 5.567373145128178 13.106003917713796 29.5575104581779 2 1 1
667 223 2 0.24746 1.1782694247505554 18.117533890663555 34.30241785849513 1 0 -1
1739 580 3 -0.67874 6.628520158378322 13.0089037740205 30.504324109779844 2 1 1
288 96 1 0.43128 8.572117606875896 13.436903182122188 37.79205665479704 -1 1 0
2020 674 2 0.24746 0.9482011930152854 12.182558784078651 36.001891835592545 3 1 -1
804 268 1 0.43128 5.250854168610885 17.709100328663087 27.398321339638162 -2 0 0
1348 450 2 0.24746 2.8584012589780063 14.252226921778071 33.3267944349502 0 2 -1
669 223 1 0.43128 2.2625561899652626 16.597099065052046 33.73764156299541 1 0 -1
102 34 1 0.43128 4.947692826251171 10.966424795252877 36.09751085970679 0 -1 0
1350 450 1 0.43128 1.2975013754185911 14.596646560011752 34.44481561845325 0 2 -1
2305 769 2 0.24746 8.591775830233042 14.923308241901527 34.51896523754863 1 2 -1