LAMMPS data file via write_data, version 29 Aug 2024, timestep = 1000000, units = real

2916 atoms
4 atom types
2187 bonds
3 bond types
1458 angles
2 angle types
2187 dihedrals
3 dihedral types

2.2982031040481274 44.64291689594707 xlo xhi
2.5947208364233347 44.14238916357397 ylo yhi
2.6712126563373886 43.76700734365272 zlo zhi

Masses

1 1.008
2 14.011
3 15.011
4 15.999

Pair Coeffs # lj/cut/coul/long

1 0 0.4
2 0.171477 3.4612
3 0.238761 3.6072
4 0.169017 3.1496

Bond Coeffs # harmonic

1 1000 1.9842
2 1000 1.71581
3 1000 0.95053

Angle Coeffs # harmonic

1 1000 106.368
2 1000 90.95

Dihedral Coeffs # quadratic

1 1000 180 
2 1000 180 
3 1000 180 

Atoms # full

563 141 1 0.44151 12.762523449445295 6.857494778728398 3.497854123462221 0 1 2
2608 652 3 0 9.940529107154196 8.947621739117482 10.404821482265593 1 -1 1
1139 285 1 0.44151 11.54297554060894 3.724002333069193 6.26468047847826 1 1 0
856 214 3 0 11.455943787968641 11.494405828448265 6.7895574292279495 0 1 1
1584 396 3 0 12.209555678481639 8.797080593512764 15.436268218750127 0 0 2
1468 367 3 0 3.9772411432652843 9.940844947402075 12.761614855911237 2 -1 0
2630 658 4 -0.69711 10.680794903806099 4.165208257839629 15.259624518941727 2 -1 -1
562 141 4 -0.69711 11.813790207083535 6.777694773127168 3.644175315125928 0 1 2
2864 716 3 0 9.35538926675893 4.676750284642907 7.849380766540093 1 1 -1
1465 367 2 0.2556 2.710865860585357 8.722108620980293 13.680812456582897 2 -1 0
2691 673 1 0.44151 10.488531910009124 6.61844883740954 13.072833885419731 1 -2 2
2545 637 2 0.2556 6.967000279279784 6.241105447725486 9.72223827925604 0 1 0
2863 716 1 0.44151 11.379206595263833 5.950967486629482 5.239001563659385 1 1 -1
904 226 3 0 6.6446595543846 9.731475625125109 6.352743915416665 1 0 2
1623 406 1 0.44151 2.5085716338841437 5.548746998525472 12.835609525239748 1 -1 -1
1845 462 2 0.2556 8.496456096928343 7.987243496306283 14.853822889473664 0 0 0
2605 652 2 0.2556 11.801053839896461 9.349094283895543 9.847842206065767 1 -1 1
2546 637 4 -0.69711 5.61766384943136 5.374213105565323 10.333751059415157 0 1 0
1583 396 1 0.44151 11.616359342098418 8.061722989876976 12.028950074551874 0 0 2
2208 552 3 0 4.397184352704561 8.909342613015134 9.25714741975397 0 1 0
2861 716 2 0.2556 9.50876268959695 5.9991877817483 6.378504468230249 1 1 -1
1847 462 1 0.44151 10.079694996500187 8.980233856105855 13.723146429347766 0 0 0
276 69 3 0 12.77421636562645 12.820410337122212 15.170023104607624 -1 -1 0
1930 483 4 -0.69711 2.505488226708194 4.736094688292619 7.087829053538984 -1 1 1
691 173 1 0.44151 10.629955822583431 12.678508527083768 9.538649442215409 1 1 1
1582 396 4 -0.69711 11.500377510493172 8.127589184580103 12.979317215903459 0 0 2
689 173 2 0.2556 10.029864613483497 12.626378706308135 11.64065726306634 1 1 1
2548 637 3 0 6.972348158548259 7.423416569037462 11.314716810435046 0 1 0
690 173 4 -0.69711 9.813270057846786 12.397119001996808 9.95301499193019 1 1 1
2205 552 2 0.2556 3.0807290466149917 7.544204266818383 9.83927496642719 0 1 0
901 226 2 0.2556 7.96536628194824 9.862465123625837 7.827902696301115 1 0 2
1846 462 4 -0.69711 9.152860432267927 9.179753389678798 13.80759281591489 0 0 0
2692 673 3 0 9.098391287502322 3.457607247359086 12.288682296379887 1 -2 2
2361 591 2 0.2556 5.830986883427703 5.511101176636792 13.73259428251344 0 1 0
1172 293 3 0 5.317572916235177 6.484174279957346 5.675370249110402 1 1 -1
2606 652 4 -0.69711 12.240432569294565 7.698879628660156 10.022879414510943 1 -1 1
564 141 3 0 9.274330557517116 6.693564250652586 2.9000254271616006 0 1 2
2362 591 4 -0.69711 4.397657398176387 5.615301389962432 12.79292593712923 0 1 0
2631 658 1 0.44151 10.582544982919444 4.716970099986542 14.476744029752469 2 -1 -1
2364 591 3 0 4.768367705860056 5.310032977493005 15.395993512007749 0 1 0
2689 673 2 0.2556 9.810860976337155 5.1676295014093805 11.57810755738222 1 -2 2
2363 591 1 0.44151 4.680974580893487 5.723818853442496 11.882074669249608 0 1 0
1931 483 1 0.44151 2.697540448760567 5.2408989792695415 6.291118680615026 -1 1 1
191 48 1 0.44151 3.2178476596671137 11.356865898418432 15.578314815300295 0 1 0
2547 637 1 0.44151 5.416936280010502 4.696001707772927 9.681885878366106 0 1 0
374 94 4 -0.69711 5.036615390373343 3.632903779299614 8.328899214200048 1 0 0
1848 462 3 0 6.693267736975642 8.80014177410143 14.70382732620317 0 0 0
190 48 4 -0.69711 3.370494033856235 12.243876727638028 15.918460316129671 0 1 0
1169 293 2 0.2556 3.874144250685373 7.68509244613354 5.037459084254237 1 1 -1
902 226 4 -0.69711 7.665757007839963 11.545485358234489 7.9849056127452895 1 0 2
1170 293 4 -0.69711 2.835860217908503 6.344695666951399 4.773432531911382 1 1 -1
375 94 1 0.44151 4.186562401590491 3.6931278326206023 7.879069917722993 1 0 0
2690 673 4 -0.69711 10.112022110172436 5.7376733729746165 13.168687389831662 1 -2 2
2862 716 4 -0.69711 11.074621793587095 5.420823168951487 5.982792502467223 1 1 -1
903 226 1 0.44151 8.235344798967018 11.854964768005509 8.693240772218807 1 0 2
941 236 2 0.2556 4.055362933055142 11.753179086642596 7.30248890318592 0 1 0
692 173 3 0 8.20123545102902 11.94855139783037 12.002947626182076 1 1 1
1009 253 2 0.2556 11.144606942239056 3.4807398552717186 2.998391048163797 0 1 -1
1138 285 4 -0.69711 11.688858932798631 2.7760938426898645 6.2487487616380974 1 1 0
348 87 3 0 2.351602373152737 11.86067789408352 4.004795419492524 0 0 1
2447 612 1 0.44151 11.174708506809564 10.213563514493483 21.36662283780686 0 -1 1
2582 646 4 -0.69711 8.799915829553578 3.865660775509828 26.034946324744805 1 1 -2
912 228 3 0 9.00750911836293 12.820702312588732 24.72196611526218 1 0 1
87 22 1 0.44151 3.4532741270852334 8.18290104959902 27.034894231762287 0 0 -1
961 241 2 0.2556 8.527246225947582 4.296906424382036 21.952422853991813 0 0 1
2162 541 4 -0.69711 2.907946237835835 3.202878475816835 22.84135796717363 2 1 -1
2395 599 1 0.44151 8.187481140076912 12.869740184445009 21.322729592471116 1 1 -1
508 127 3 0 4.183910182714527 10.546451235958129 20.499907755712233 -1 0 -1
507 127 1 0.44151 2.568360154490623 8.753828826833495 17.915107538117034 -1 0 -1
2584 646 3 0 9.646408979547719 2.6305471123923096 28.214351789146225 1 1 -2
2853 714 2 0.2556 5.886384556972666 6.3279661912865635 27.37465262008113 0 1 0
2394 599 4 -0.69711 8.727504289056334 12.2909273705076 20.77429395984718 1 1 -1
1506 377 4 -0.69711 11.526398579243184 11.971825664218143 21.729611126342416 1 0 1
2856 714 3 0 4.7262475421037555 6.300565268661158 25.765604729009354 0 1 0
505 127 2 0.2556 2.5053000409305537 9.677403858633543 19.897632303537154 -1 0 -1
2396 599 3 0 9.317153563104792 10.934464197245205 18.58313129365132 1 1 -1
2065 517 2 0.2556 4.521022799091409 5.618479447012206 19.848341907360673 0 1 0
2445 612 2 0.2556 12.29301054067185 8.36213173333142 21.704771381758157 0 -1 1
1616 404 3 0 11.510533114200332 10.315493357219815 26.50736712520407 0 1 1
506 127 4 -0.69711 3.2382728229827955 9.223564926821421 18.413786555437646 -1 0 -1
962 241 4 -0.69711 8.049080208360605 5.236562063996388 23.306692971832433 0 0 1
2865 717 2 0.2556 6.730080247779571 8.459533926330941 18.981266857456166 1 2 0
540 135 3 0 8.33468213424721 8.709377838397344 28.092781740993633 -1 -1 -1
2762 691 4 -0.69711 10.064795108083004 12.52758239406828 28.629445147268843 1 0 0
2868 717 3 0 8.003437797886562 6.939125882132482 18.929776642282096 1 2 0
2244 561 3 0 6.096604657236805 8.438737052884036 23.27553520066926 2 1 -1
2446 612 4 -0.69711 10.935893861393426 9.29468554890138 21.218872398567296 0 -1 1
2632 658 3 0 10.539645901305834 3.6329519168982625 17.847083784664083 2 -1 -1
2763 691 1 0.44151 10.976776026609594 12.270624029091334 28.46316207641691 1 0 0
86 22 4 -0.69711 2.8064975606397065 8.740144774061708 26.59644214034344 0 0 -1
2855 714 1 0.44151 5.404125568565905 7.844225271186335 28.87862529570911 0 1 0
2581 646 2 0.2556 10.115959282277057 4.193085964683712 27.08653769880823 1 1 -2
2583 646 1 0.44151 8.82340948635586 4.543860986769179 25.355162855544787 1 1 -2
2866 717 4 -0.69711 5.666204307573469 7.643279956805084 17.91022445340438 1 2 0
2243 561 1 0.44151 9.22873469523873 8.29829488525189 21.62680302745529 2 1 -1
2242 561 4 -0.69711 8.37259754230628 8.039062656412504 21.98544269609999 2 1 -1
964 241 3 0 8.448446638608267 2.635815442181837 23.03434988397392 0 0 1
2867 717 1 0.44151 4.915805223314949 8.231484562153975 17.77627312132457 1 2 0
2241 561 2 0.2556 7.728236512607535 9.436363539088395 22.747073989386976 2 1 -1
2161 541 2 0.2556 4.27889348042609 3.692171052478221 23.74971434019942 2 1 -1
2629 658 2 0.2556 10.164587684896322 5.120538415153062 16.588753535796904 2 -1 -1
2067 517 1 0.44151 4.558738004189748 3.4309975723414863 19.93722094607216 0 1 0
2066 517 4 -0.69711 4.072596160997287 4.077274000117434 20.456213675449696 0 1 0
2448 612 3 0 11.350945088523982 6.6820498023655315 21.232521204261698 0 -1 1
85 22 2 0.2556 3.484868209624919 10.315623328987474 26.545266713736684 0 0 -1
963 241 1 0.44151 8.014889878164485 6.149123967328572 23.003722238124695 0 0 1
1507 377 1 0.44151 10.741704681052264 12.410937915813545 21.38034966629926 1 0 1
2854 714 4 -0.69711 4.995135950245827 7.638999102837146 28.032603090583585 0 1 0
2163 541 1 0.44151 3.109753006366741 3.3965054239271475 21.920336832188813 2 1 -1
64 16 3 0 4.9342577381992125 12.755039847944627 28.724069210165904 1 0 0
432 108 3 0 6.732479292561567 3.680223708562096 18.355921597992165 0 0 1
189 48 2 0.2556 4.819276642740377 12.163851734682789 16.835128488191355 0 1 0
2164 541 3 0 3.405336512651103 3.119352037746993 25.436681549726188 2 1 -1
1613 404 2 0.2556 11.637228679357484 8.537314236804212 25.639388369147262 0 1 1
2068 517 3 0 3.332772199213996 6.518225811595016 21.158120599908994 0 1 0
2393 599 2 0.2556 7.892314010210057 12.12331054665266 19.284423071275167 1 1 -1
1012 253 3 0 10.814755610276954 2.734784424040192 42.28571508668181 0 1 -2
1774 444 4 -0.69711 2.593070394029065 4.647883935377287 34.16790977848733 2 0 0
1118 280 4 -0.69711 5.492582295090166 7.134160866395842 39.784939253004964 1 0 -1
231 58 1 0.44151 4.111748192137288 8.37421761987974 40.80194760323319 0 2 -1
2712 678 3 0 9.189668602158864 10.533534929098021 37.51015369580888 1 0 -1
2710 678 4 -0.69711 6.906302855668143 10.663463373608996 38.840551138437206 1 0 -1
2436 609 3 0 2.6050677760234726 5.649319613123284 38.829031333647976 0 0 -1
2414 604 4 -0.69711 4.5827822236538065 11.426776127127784 40.28597635720886 3 0 -2
1345 337 2 0.2556 4.158273497889399 8.92712375048531 37.730669766432804 1 -1 0
561 141 2 0.2556 11.07670070081193 6.904337016609222 43.194093256163924 0 1 1
675 169 1 0.44151 7.668916285125808 8.849110411606482 38.26199712875627 0 -1 -1
1120 280 3 0 4.66310329179826 5.8597972328979795 41.95033875046304 1 0 -1
1773 444 2 0.2556 4.167610253678183 5.325486943037696 34.07387289579028 2 0 0
143 36 1 0.44151 7.294582886252951 7.731546435901772 33.324107484660914 1 -1 0
538 135 4 -0.69711 6.792992219619643 7.948037949364098 30.1029606428689 -1 -1 -1
1379 345 1 0.44151 11.78658789567719 12.489625675593222 35.29521675531369 0 -1 0
2415 604 1 0.44151 4.3462697210669745 10.682542833727224 40.84763058974191 3 0 -2
2709 678 2 0.2556 8.281131715205769 11.69068149801575 38.84156660235528 1 0 -1
144 36 3 0 4.046801682961256 8.704621052265669 32.325185775889494 1 -1 0
676 169 3 0 7.718255837680497 5.452233549428809 37.27628383620311 0 -1 -1
1946 487 4 -0.69711 11.201068168874903 5.99015060172521 33.725882731714385 0 -1 0
142 36 4 -0.69711 6.432009075356301 7.7241999768227005 32.907756978914044 1 -1 0
2711 678 1 0.44151 6.280721674615348 11.050416864161573 39.46032495080436 1 0 -1
888 222 3 0 7.360767624304917 4.782592796027776 31.81819626514383 1 2 2
350 88 4 -0.69711 4.5732394564498975 11.86071709905328 34.638830156514004 0 -1 0
1119 280 1 0.44151 6.0524350304475245 7.267659818893333 39.01237300540508 1 0 -1
648 162 3 0 11.35279118769197 11.715791692983917 43.36679421545953 0 0 -1
1348 337 3 0 3.071423964681719 8.744953593587471 36.08050350102181 1 -1 0
2165 542 2 0.2556 10.340118144433658 9.699944882097988 33.11182421814107 1 0 -2
349 88 2 0.2556 3.121349969100418 12.495140323799873 35.29969257368371 0 -1 0
1346 337 4 -0.69711 5.216585889488204 10.027987628092902 36.94727923940812 1 -1 0
2166 542 4 -0.69711 9.367730378484186 8.335265213207634 33.48616049900674 1 0 -2
674 169 4 -0.69711 7.6402763967903935 7.889934939900062 38.29980515499651 0 -1 -1
1945 487 2 0.2556 12.126443242149161 5.458473230870439 32.381268833445205 0 -1 0
2168 542 3 0 8.774343087844809 10.906054007945901 33.28412524276402 1 0 -2
885 222 2 0.2556 5.8245132928984 3.554018470968562 31.562315609174327 1 2 2
539 135 1 0.44151 6.566383826268909 7.833995468510925 31.0299100629647 -1 -1 -1
1347 337 1 0.44151 5.877867647685713 10.275222187408747 37.59846703942243 1 -1 0
1673 419 2 0.2556 9.790294793396104 3.5261230374819674 34.958929485767214 0 0 -1
2167 542 1 0.44151 9.947041212269598 7.579560613621154 33.461614285928874 1 0 -2
1117 280 2 0.2556 6.0377222599477545 5.686438972329231 40.53000041027437 1 0 -1
230 58 4 -0.69711 3.5192235569732224 9.08494876457604 41.07174095532069 0 2 -1
141 36 2 0.2556 5.661508836060614 9.185733399029571 33.37156973456871 1 -1 0
1948 487 3 0 10.567939705515817 5.686575763611986 31.175693709634494 0 -1 0
673 169 2 0.2556 7.8447352221277695 7.341584072683261 36.686702650315944 0 -1 -1
1947 487 1 0.44151 11.789141127849753 5.962511461577056 34.48459128469811 0 -1 0
2413 604 2 0.2556 3.1225415721344705 11.957126526325514 39.551330323440574 3 0 -2
1776 444 3 0 4.740272491037243 4.304340249400619 35.675596316739956 2 0 0
351 88 1 0.44151 4.959740072332599 11.306142764636643 35.3210455522607 0 -1 0
1675 419 1 0.44151 7.782488315693695 2.899783504441862 34.35008502945473 0 0 -1
229 58 2 0.2556 2.367355696664718 8.374929768294333 42.12692969490323 0 2 -1
537 135 2 0.2556 8.335047194941387 8.702308838084388 30.076229681200868 -1 -1 -1
2766 692 4 -0.69711 11.185372808777542 17.498704952267072 12.85376735967896 2 0 1
772 193 3 0 8.350109013943598 20.124086373520196 8.518289408216958 -1 -1 1
2875 719 1 0.44151 8.147556225713341 18.131878380198476 13.189157466900562 1 1 0
2344 586 3 0 4.240093475746546 16.776274881037985 8.197252117848658 0 -1 0
42 11 4 -0.69711 3.60824584868604 20.527705654563274 10.033694448437984 0 -1 0
1 1 2 0.2556 12.606464700667035 19.55738957910499 15.40538219383218 0 1 0
2876 719 3 0 8.35619432039841 15.726192532891483 10.595984909558702 1 1 0
708 177 3 0 6.096720107270267 20.77962189398815 5.950604552745828 0 0 0
151 38 1 0.44151 6.99556326037136 12.98580357922329 6.81627127390463 -1 0 -1
2635 659 1 0.44151 10.289204961561818 16.008222398031904 14.275039517205332 1 0 1
707 177 1 0.44151 2.8526306912638923 19.767031598102452 6.945931133171512 0 0 0
2636 659 3 0 8.409474559997573 13.627226367233508 16.094586407893107 1 0 1
2634 659 4 -0.69711 10.06110962191833 15.291098680516242 14.87038308597315 1 0 1
150 38 4 -0.69711 6.817941260150707 13.860507036971587 6.455423522718414 -1 0 -1
2873 719 2 0.2556 7.158449247462378 16.777792430636357 11.778161598153694 1 1 0
705 177 2 0.2556 4.93410241971622 19.262487816308795 6.483192751801466 0 0 0
2633 659 2 0.2556 8.35620900245291 15.11649728903628 14.784341495379214 1 0 1
1593 399 2 0.2556 11.859990273365238 22.4692906777394 14.100499244858913 2 0 0
855 214 1 0.44151 12.510450435870492 14.336201053401401 8.61347135443556 0 1 1
942 236 4 -0.69711 3.911127323467178 13.353343833117536 6.699727274578366 0 1 0
1281 321 2 0.2556 12.232633107034097 17.677192291552135 8.631076492882848 0 0 0
1927 482 1 0.44151 8.600640399277125 18.10128202111147 3.0001087347123656 -1 0 1
2765 692 2 0.2556 12.001242313671163 16.186927291544908 12.10788664808911 2 0 1
2829 708 2 0.2556 4.955251780300435 13.893461312783876 12.979329244968486 1 1 1
880 220 3 0 8.7780680957006 20.66579435373665 15.041061774922404 -1 -1 1
1406 352 4 -0.69711 2.8033818220341025 22.898839847670367 15.56198495057839 0 -2 1
2341 586 2 0.2556 2.7981778849416625 15.588527170944774 8.864968341704953 0 -1 0
1284 321 3 0 10.409510278559305 16.94259913957952 8.359893465954071 0 0 0
943 236 1 0.44151 4.773829374914884 13.585336688115255 6.3452154020017435 0 1 0
152 38 3 0 6.4228477378785565 15.615268498108989 4.514689907510448 -1 0 -1
149 38 2 0.2556 6.797281328097771 13.680831320657283 4.74852646116401 -1 0 -1
769 193 2 0.2556 7.793340814838362 21.296286089956542 10.018548357930824 -1 -1 1
1999 500 1 0.44151 2.5754309986553245 21.340248848872005 5.292319502608214 0 -1 0
2248 562 3 0 12.73607012697418 20.771158882086496 4.657575008929993 -1 2 1
1928 482 3 0 11.297963100716933 17.769430541720148 5.264090682554928 -1 0 1
2874 719 4 -0.69711 8.507796110056715 17.53020602422461 12.526789699589887 1 1 0
724 181 3 0 9.348060136375853 22.833560051206376 4.436883243893574 0 -1 2
2767 692 1 0.44151 10.253717341136422 17.398331322708692 12.630763071473677 2 0 1
1242 311 4 -0.69711 11.907251814156837 23.16795717813847 9.234680842874752 1 0 1
44 11 3 0 4.420405880912638 20.25204760208138 12.53621243232193 0 -1 0
706 177 4 -0.69711 3.59329937250289 20.317784391683432 6.670030182248933 0 0 0
771 193 1 0.44151 9.070375334613342 23.03589817426774 10.403112721095287 -1 -1 1
1925 482 2 0.2556 10.127268792819272 16.85383810536701 3.9508825946809827 -1 0 1
770 193 4 -0.69711 9.132782242177058 22.33516822123043 9.74330322753106 -1 -1 1
2830 708 4 -0.69711 3.4617081713476274 13.137567437861602 13.358261894549996 1 1 1
41 11 2 0.2556 2.872155756134811 19.777609044232666 11.3905780232145 0 -1 0
1997 500 2 0.2556 3.7089995728829166 21.59623670422012 3.4361519923213493 0 -1 0
1926 482 4 -0.69711 9.271754727263929 18.311827324828077 3.654659933507874 -1 0 1
1243 311 1 0.44151 11.018543597768321 22.818725112112144 9.127849463271133 1 0 1
4 1 3 0 11.372085425875987 18.277620406782745 16.284096803933174 0 1 0
1596 399 3 0 11.259111184837902 21.606332782213457 12.418009003830525 2 0 0
2831 708 1 0.44151 3.431421949803877 13.066209923624966 14.317814421749949 1 1 1
2245 562 2 0.2556 12.07822509186516 20.955955499033312 6.519483670985061 -1 2 1
43 11 1 0.44151 2.9958815382966244 20.41695895056788 9.300650630890493 0 -1 0
853 214 2 0.2556 11.814112875536736 13.444664457804787 6.738561896764818 0 1 1
176 44 3 0 2.7511314492267296 17.73930358491018 3.596570443027513 -1 1 0
2126 532 4 -0.69711 4.466493820447304 18.040779300343736 16.084454891011532 1 1 1
2127 532 1 0.44151 3.8019745609813373 18.291468385066374 15.435607047483716 1 1 1
878 220 4 -0.69711 6.736215320221387 19.003355826560046 15.269491912176814 -1 -1 1
2832 708 3 0 4.546011969705498 13.805754690899311 11.039919532838677 1 1 1
879 220 1 0.44151 6.0004224511644715 18.58382371348862 15.728041536918319 -1 -1 1
345 87 2 0.2556 3.229877137064635 13.578679241254724 3.544653741486466 0 0 1
2092 523 3 0 3.0888098966348525 16.46263341394027 14.07024716760237 1 1 0
2090 523 4 -0.69711 2.3438512628757238 18.916593830049262 14.71940847955992 1 1 0
2247 562 1 0.44151 12.74014227062595 22.745855139595943 7.594543038917864 -1 2 1
2342 586 4 -0.69711 2.4848827106599227 16.655578704899142 10.172706137328696 0 -1 0
854 214 4 -0.69711 12.275244769455659 13.430847833294722 8.391193174385567 0 1 1
2145 537 2 0.2556 10.81632773503782 22.03218983651778 29.292378224170452 0 0 0
1821 456 2 0.2556 6.0585523444894305 14.662723213226322 23.675525086304653 1 0 1
323 81 1 0.44151 7.959555816788894 23.047868459644388 26.8717460516318 -2 -1 -1
2658 665 4 -0.69711 9.07298692409988 15.817193844521285 21.571793516894175 1 0 1
683 171 1 0.44151 12.66125315563605 20.722523131350712 21.59133269110874 1 -1 1
2173 544 2 0.2556 2.7233872500581704 17.48017757091058 23.189099390312606 0 0 0
2148 537 3 0 9.946431624856785 21.666077085217086 27.54776557394163 0 0 0
1386 347 4 -0.69711 10.855442078662149 17.869522366021734 24.600962864437616 0 0 0
805 202 2 0.2556 5.301906143280615 16.17857328490843 27.69721584612839 1 -1 -1
2659 665 1 0.44151 9.497984499951428 15.645503473432878 22.413257802544035 1 0 1
2901 726 2 0.2556 6.545070621615174 22.364861975405933 22.504675702106383 1 1 0
2425 607 2 0.2556 6.053843267373395 21.17249260907599 28.65688520222043 1 1 -1
1823 456 1 0.44151 7.180412169365785 15.244885803600587 21.894339041682887 1 0 1
1470 368 4 -0.69711 11.205402538720987 19.42284349736199 21.97883495095265 0 -1 2
2427 607 1 0.44151 7.675950926380536 22.564478886626926 29.13163816675996 1 1 -1
2125 532 2 0.2556 3.6571189354746076 17.96661667301337 17.596606091034026 1 1 1
1388 347 3 0 8.511155170829001 18.600911648275922 25.587671745070566 0 0 0
911 228 1 0.44151 10.22386353516524 16.11349169014631 24.33460342282232 1 0 1
1387 347 1 0.44151 11.80162881571307 17.70022475815351 24.64132943733539 0 0 0
2426 607 4 -0.69711 7.036344685704831 22.55965029535317 28.413818312072273 1 1 -1
2128 532 3 0 5.340320313486821 17.4514851420603 18.51165813011643 1 1 1
2318 580 4 -0.69711 12.552889969832053 23.35292158722975 22.93152101175721 1 -1 -2
2660 665 3 0 9.00435799763676 16.17578472206248 18.952605899080908 1 0 1
909 228 2 0.2556 9.683288210513211 14.446009249192144 25.636909680597928 1 0 1
1824 456 3 0 4.797899020022738 13.148591296848938 23.444931438422554 1 0 1
2 1 4 -0.69711 12.623707150270294 20.543315513479204 16.809112356376183 0 1 0
1408 352 3 0 2.3570526799453724 21.206933123885715 17.54481521916543 0 -2 1
2428 607 3 0 4.9904484738093355 21.600967160207773 27.038424917016822 1 1 -1
62 16 4 -0.69711 3.4246359329474654 14.806590347492284 29.437705747311735 1 0 0
910 228 4 -0.69711 9.882936705739883 15.246668367579217 24.13208485800348 1 0 1
1469 368 2 0.2556 9.66577720131076 19.100672782527187 21.292980298972363 0 -1 2
1472 368 3 0 10.128297037334395 20.15601270927556 19.67927531185318 0 -1 2
2388 597 3 0 2.4790264314724726 17.76257725345303 28.622479721286773 1 0 0
2176 544 3 0 4.670451278437044 17.680667465098765 22.864777393847774 0 0 0
1952 488 3 0 10.382739773913714 23.182368409065898 17.470851630794634 0 -1 1
1471 368 1 0.44151 11.218084534748014 18.978268929710506 22.833082522579414 0 -1 2
2904 726 3 0 4.78495417914737 22.505554518786685 21.601017249611623 1 1 0
1385 347 2 0.2556 10.398307548412415 18.405847606562382 26.1662123490161 0 0 0
2657 665 2 0.2556 10.318106492116996 15.800201606724825 20.391155974680938 1 0 1
806 202 4 -0.69711 5.600388335273898 17.397388272925383 26.527179242776487 1 -1 -1
2174 544 4 -0.69711 3.0193733222422536 16.34694010599942 24.442870209255265 0 0 0
807 202 1 0.44151 4.9098225723086655 17.311598445288023 25.86755717550429 1 -1 -1
1822 456 4 -0.69711 6.529908165025603 14.56074282508637 22.028375572365483 1 0 1
808 202 3 0 6.885083657891248 16.75237180011296 28.745655181353314 1 -1 -1
192 48 3 0 4.686596938599499 14.093870647422444 17.27436003127427 0 1 0
2317 580 2 0.2556 11.898340942774716 22.37490126388789 24.180222559018635 1 -1 -2
877 220 2 0.2556 7.4173205249571685 20.12218805794424 16.377743010078653 -1 -1 1
1405 352 2 0.2556 3.878479242182482 21.972598857677756 16.5276825573952 0 -2 1
2319 580 1 0.44151 12.849920058782903 22.749886531176717 22.24345213734328 1 -1 -2
1505 377 2 0.2556 12.163936119319187 13.013408398712091 22.933389107357804 1 0 1
2504 626 3 0 10.57090517532429 16.978060613410484 29.999495318392807 1 0 0
2764 691 3 0 8.105673957805664 13.632968489861158 30.021652213482614 1 0 0
63 16 1 0.44151 3.1537277466889293 15.53207952750747 30.01118630744846 1 0 0
2146 537 4 -0.69711 9.28757323135168 22.238292989606332 30.04435810329902 0 0 0
2087 522 1 0.44151 9.607016373089808 14.899953591796816 42.07916609975503 0 0 0
1380 345 3 0 10.014603373647887 14.640528782968698 37.46946299119379 0 -1 0
61 16 2 0.2556 4.783803429662903 14.080541458344886 30.1927516892039 1 0 0
2199 550 1 0.44151 8.727914414503052 21.790492281114805 33.29270320711933 2 -1 -1
1734 434 4 -0.69711 4.686648906466024 16.14540890052157 33.31819534920338 0 -1 -1
2817 705 2 0.2556 7.611183068871765 17.702020002323074 36.79247487637618 1 0 -1
568 142 3 0 6.716181410379201 19.39793914898221 31.771107367637182 -1 1 0
2501 626 2 0.2556 11.489281342393019 17.86793628504043 31.51610005916042 1 0 0
1736 434 3 0 2.896796946777331 17.74516707060936 34.43010116701983 0 -1 -1
35 9 1 0.44151 4.853697520163273 18.7279339858743 38.06529520690821 0 0 0
34 9 4 -0.69711 3.986576368647805 18.910827204651078 38.43837180303287 0 0 0
1570 393 4 -0.69711 8.567396762270866 21.75071798086541 38.610588374004145 0 1 1
1603 401 1 0.44151 8.245066207638867 19.93625525281878 41.90354752316333 -1 2 0
173 44 2 0.2556 2.3638732110727787 18.28200637769914 42.82397919410095 -1 1 -1
566 142 4 -0.69711 7.432560458786502 20.52608997152442 34.055448791673385 -1 1 0
2386 597 4 -0.69711 2.651383874430993 16.808167930785565 31.084555897466338 1 0 0
2819 705 1 0.44151 6.53921809928045 19.587615295412665 37.096490477562575 1 0 -1
565 142 2 0.2556 5.952488274760913 19.81451471395891 33.55442860840405 -1 1 0
2761 691 2 0.2556 10.0635650005075 13.337823997934802 30.14215581495015 1 0 0
528 132 3 0 4.357030642047562 22.315592023309986 35.336685224740464 1 0 0
567 142 1 0.44151 7.295400433504211 20.823945072832746 34.956680409465235 -1 1 0
1569 393 2 0.2556 10.216808123774165 21.42897212779557 38.25828932910649 0 1 1
1735 434 1 0.44151 5.377423477816356 15.479297167526076 33.321467332894336 0 -1 -1
2682 671 4 -0.69711 7.756402475526376 17.674583633008815 42.406234683669744 0 -1 1
2416 604 3 0 4.089765485337451 13.387979007594947 38.57652419464366 3 0 -2
2132 533 3 0 8.586808933690715 15.6422944302528 33.44594934808478 1 1 -1
352 88 3 0 2.7502061674503047 13.487238969435955 33.62251411498366 0 -1 0
526 132 4 -0.69711 6.604505549828921 21.73706957007124 36.60388424059805 1 0 0
1572 393 3 0 9.85100019443285 21.499561596634692 36.309406511012625 0 1 1
2684 671 3 0 5.946100740408166 19.57774465851832 42.711334109107256 0 -1 1
646 162 4 -0.69711 11.238661276409255 14.23428927576388 42.57360729967388 0 0 -1
1733 434 2 0.2556 4.243181100314141 16.386930187527746 34.95864928593626 0 -1 -1
33 9 2 0.2556 4.159501481985103 20.333483228207854 39.38256438561022 0 0 0
2820 705 3 0 6.754899058556818 16.08484014970041 37.55922067684169 1 0 -1
2380 595 3 0 12.233070690037556 20.771191840231687 32.684493509227664 1 1 -1
2131 533 1 0.44151 5.961154252037694 13.40019711087448 34.214359126651715 1 1 -1
175 44 1 0.44151 2.6001902024592964 16.72156464692101 41.30496261042072 -1 1 -1
2818 705 4 -0.69711 6.330631587685734 18.687639050545076 37.368336716399995 1 0 -1
645 162 2 0.2556 12.572363195334855 13.19248800576938 42.85001747409345 0 0 -1
2683 671 1 0.44151 8.06963679167033 16.806305596699275 42.137157115173046 0 -1 1
1378 345 4 -0.69711 11.112220354779243 13.072589752385456 35.64613379716605 0 -1 0
2502 626 4 -0.69711 12.862074313914354 18.182590880665035 30.53764964412689 1 0 0
525 132 2 0.2556 5.635976972087875 23.153081073907973 36.60113615576057 1 0 0
2088 522 3 0 6.308177584673343 14.213843961244764 41.00084159919371 0 0 0
2198 550 4 -0.69711 9.136696623889978 22.48349796657555 32.769022808160315 2 -1 -1
2086 522 4 -0.69711 8.700070720247442 15.022896239069947 41.78834718125941 0 0 0
2681 671 2 0.2556 6.0888527527662974 17.7288207836684 42.0060040131151 0 -1 1
1377 345 2 0.2556 11.637903243655034 13.529045412723654 37.214076844186444 0 -1 0
527 132 1 0.44151 7.342154723663467 21.916952727170642 37.19185636438004 1 0 0
1526 382 4 -0.69711 12.750986577650313 16.817713754365066 42.89307200620863 0 0 0
1601 401 2 0.2556 9.945076411842972 21.13353930161653 42.58587066171377 -1 2 0
2387 597 1 0.44151 2.9923718850254124 16.774590424921414 31.97964689707509 1 0 0
2385 597 2 0.2556 3.4741732706587687 18.09751261496341 30.305922950699426 1 0 0
1528 382 3 0 11.042052095553581 18.070200888185095 41.31032013293706 0 0 0
1571 393 1 0.44151 8.49592053204729 21.765060363714362 39.57075492518885 0 1 1
1602 401 4 -0.69711 8.576108812131553 20.788434937363213 41.60958585143061 -1 2 0
2147 537 1 0.44151 9.467409120416221 22.43975810212331 30.96936592330926 0 0 0
174 44 4 -0.69711 2.7269676122580813 16.703120949572174 42.25976304402878 -1 1 -1
2130 533 4 -0.69711 6.44113298998854 14.146776115355696 33.85294145154528 1 1 -1
1525 382 2 0.2556 12.757021797553065 18.407794435730573 42.247434897779364 0 0 0
1604 401 3 0 10.226373993313747 22.85720058816749 41.6458934790344 -1 2 0
2129 533 2 0.2556 8.061529826802829 13.982143740901527 34.396228089624415 1 1 -1
647 162 1 0.44151 11.60728179663092 15.075021368473065 42.29287277854702 0 0 -1
2000 500 3 0 2.650823322581357 22.105013420335904 42.9326916539542 0 -1 -1
2181 546 2 0.2556 6.2924294456340215 23.179190566929 42.0174569570647 0 -1 -1
1479 370 1 0.44151 2.7479339216699423 17.32592635045429 39.00285375885262 1 0 -1
1478 370 4 -0.69711 2.4068745615098015 16.543546950698655 39.44385161629253 1 0 -1
2085 522 2 0.2556 8.054239332174102 13.450901122078571 41.552107289242464 0 0 0
1115 279 1 0.44151 3.341430778079262 24.427505380661685 12.79692902504572 -1 -1 1
2625 657 2 0.2556 7.513228384591997 30.322644389747733 14.419794588553584 0 0 0
2405 602 2 0.2556 3.436105563772615 25.400055117988547 5.227239301284396 0 -1 1
976 244 3 0 2.4861615813030427 26.676405403882605 14.872911277047955 -1 -1 0
1503 376 1 0.44151 7.487733477015255 29.510137326687552 11.00490244970831 0 1 0
2460 615 3 0 12.749431941603524 31.649543397208305 6.615380993609705 1 0 0
2626 657 4 -0.69711 6.031711813092343 30.785263288774182 13.68618447603478 0 0 0
1951 488 1 0.44151 10.158167661102798 26.404194364258267 16.01878165792346 0 -1 1
849 213 2 0.2556 6.791955477347429 29.86019444223205 5.7329943462494555 1 0 1
1501 376 2 0.2556 7.5041078707279825 31.22426716601795 9.65309607486384 0 1 0
476 119 3 0 5.985640161944783 27.223636580075294 13.781961983920525 0 0 -1
723 181 1 0.44151 8.93990631334848 26.114292908053383 3.171495664659078 0 -1 2
474 119 4 -0.69711 5.722641360035802 28.832024450155615 11.697510746346435 0 0 -1
475 119 1 0.44151 5.310468924424633 29.142883826645054 10.88502115028775 0 0 -1
2406 602 4 -0.69711 4.7538231862663185 25.441182520227777 4.12882764055013 0 -1 1