LAMMPS data file via write_data, version 29 Aug 2024, timestep = 1000000, units = real

5271 atoms
10 atom types
4542 bonds
8 bond types
6897 angles
10 angle types
5476 dihedrals
7 dihedral types

-0.32433645508723785 39.126396455074804 xlo xhi
0.020866376615430227 38.716243623379604 ylo yhi
0.12117701956698568 38.31704298042318 zlo zhi

Masses

1 1.008
2 1.008
3 12.011
4 15.999
5 1.008
6 1.008
7 1.008
8 12.011
9 12.011
10 15.999

Pair Coeffs # lj/cut/coul/long

1 0.03 2.5
2 0 0.5
3 0.066 3.5
4 0.17 3.12
5 0 0.4
6 0.03 2.5
7 0.03 2.5
8 0.066 3.5
9 0.066 3.5
10 0.17 3.12

Bond Coeffs # harmonic

1 340 1.09
2 320 1.41
3 553 0.96
4 268 1.529
5 340 1.09
6 340 1.09
7 320 1.41
8 553 0.96

Angle Coeffs # harmonic

1 55 108.5
2 33 107.8
3 35 109.5
4 55 108.5
5 37.5 110.7
6 33 107.8
7 37.5 110.7
8 33 107.8
9 50 109.5
10 35 109.5

Dihedral Coeffs # opls

1 0 0 0.45 0
2 -0.356 -0.174 0.492 0
3 0 0 0 0
4 0 0 0 0
5 0 0 0.318 0
6 0 0 0.45 0
7 0 0 0.468 0

Atoms # full

3996 531 5 0.418 3.5702104190996478 7.214402228987543 3.943106030395678 1 2 -1
3995 531 10 -0.6830000000000001 3.728797417398658 6.341474022227621 3.511030388166214 1 2 -1
3994 531 8 0.145 3.7675380737358095 5.521750100124277 4.617162659574299 1 2 -1
2693 360 7 0.06 1.6770724443027087 4.420233308814259 11.726751371047254 4 2 -1
495 67 5 0.418 2.425022160016343 6.698102976941794 1.7163312900392735 0 -1 0
3613 478 6 0.06 8.745330743116762 0.27065431341291024 2.068521839981676 1 0 0
3610 478 8 0.145 8.20858877844099 1.023407999126104 1.541719735326707 1 0 0
2582 346 4 -0.6830000000000001 0.6658476183932817 9.516054718648117 10.420382563852757 2 1 2
3124 416 3 0.145 5.992666144102998 5.179745418491034 0.5732016420833601 1 0 -1
3615 478 9 -0.18 6.854550555075585 1.2364755482222571 2.3826650823895346 1 0 0
3618 478 7 0.06 6.462520407545501 0.29321921553649166 2.685313847232974 1 0 0
3129 416 2 0.418 4.994463039378914 6.249352067078985 1.9473640717889398 1 0 -1
5107 702 1 0.04 3.5959923943895635 0.27406456459620776 0.5631059578746833 0 -2 0
3616 478 7 0.06 6.078060427727426 1.7570276008857337 1.7480456108425808 1 0 0
3125 416 4 -0.6830000000000001 5.342193108645944 6.408397836679696 1.0487238983307559 1 0 -1
159 21 5 0.418 5.561871395017767 8.189376578286208 0.8058360933378395 -1 0 -2
3617 478 7 0.06 6.99735509770333 1.8762217451646865 3.272477989147908 1 0 0
494 67 10 -0.6830000000000001 1.7597018565772071 6.867914410274402 1.0074590734323245 0 -1 0
4094 544 10 -0.6830000000000001 5.360685925818966 9.582698864635015 11.390012393521486 1 1 0
4685 632 4 -0.6830000000000001 0.027362970872333636 0.26718216733159006 6.190234067830284 2 0 2
3815 506 7 0.06 8.102972232416557 6.5869222339497995 4.133614209511202 0 2 0
2686 360 8 0.145 0.5073269342548683 6.118238009587072 11.187192174322698 4 2 -1
3699 490 2 0.418 1.1278902416448175 5.279300020866075 0.6799086650324029 3 -1 -1
3695 490 4 -0.6830000000000001 0.9729001521979823 4.29601215484222 0.6631242431893632 3 -1 -1
2690 360 6 0.06 0.7300974062400469 6.8480294080972675 10.374751497889921 4 2 -1
3997 531 6 0.06 3.3715244954871415 4.560399990624409 4.27025592731751 1 2 -1
3405 451 1 0.04 0.8556766602958521 5.89116844927909 4.181243291792402 0 -2 2
4684 632 3 0.145 -0.11198773509812135 1.623876404980142 5.932441128293461 2 0 2
2180 291 1 0.04 9.4911995203977 5.051812672630714 7.476076065429797 1 1 4
3614 478 6 0.06 8.108438128866288 0.7936762147822236 0.4644365740009445 1 0 0
1534 203 6 0.06 4.142997985868248 0.1367540954373037 4.334993590508013 0 1 2
692 93 1 0.04 4.290399126270786 7.188855184009461 12.6439888058958 0 0 1
467 64 10 -0.6830000000000001 2.6242805514196967 0.07514084909828336 9.427298145682085 -1 1 -1
2585 346 1 0.04 1.1093972764759503 9.51698586128053 12.39952442930034 2 1 2
3998 531 6 0.06 3.0918256314699053 5.895847381004685 5.372908320859567 1 2 -1
3808 506 8 0.145 8.887215361939212 4.813646581165869 3.26744087495162 0 2 0
3814 506 7 0.06 9.210320394303864 5.838195889390648 5.111577300957961 0 2 0
3811 506 6 0.06 8.158521760006687 4.230873771468707 3.789849089507735 0 2 0
1072 144 8 0.145 3.2618092517650483 8.996853695300711 6.075352307101561 1 0 0
2691 360 9 -0.18 1.3875496463476729 4.9156689455806415 10.846916919037698 4 2 -1
2694 360 7 0.06 2.294574015748223 5.225484925779563 10.367325603809105 4 2 -1
3611 478 10 -0.6830000000000001 8.744051519850698 2.3329252281141284 1.5609109772479044 1 0 0
2692 360 7 0.06 1.0872892629152016 4.184034694379835 10.126927286633356 4 2 -1
1076 144 6 0.06 3.9319220901785226 8.247142081422535 6.431254412648574 1 0 0
5108 702 1 0.04 1.9902790086744413 0.6170144580095142 1.1359366561015332 0 -2 0
5109 702 2 0.418 2.4468280809403034 2.7883582915104244 1.0328311109192159 0 -2 0
3612 478 5 0.418 8.733225918040633 2.7384977098610257 0.6604437561664828 1 0 0
1077 144 9 -0.18 2.0543465406252057 8.856382402515331 6.976766588924018 1 0 0
1073 144 10 -0.6830000000000001 2.905426519899489 8.613638156575878 4.78429887583311 1 0 0
3403 451 3 0.145 -0.2107165379119464 5.751830446911245 4.020578238938977 0 -2 2
3331 442 1 0.04 7.8136797652479775 8.510838777956312 7.136969479131708 1 2 -1
3128 416 1 0.04 6.628843827395403 4.760922312069545 1.393554154480518 1 0 -1
690 93 1 0.04 4.092792480568963 5.492344052173463 12.286934830517215 0 0 1
158 21 10 -0.6830000000000001 5.59224504507076 9.13259195748434 0.5555014556608757 -1 0 -2
4573 613 1 0.04 8.528370280475377 1.2643402631791045 5.169508024067894 0 2 0
1308 172 7 0.06 4.5509023891282565 3.336290484930392 12.321188554904209 -2 -1 0
3332 442 1 0.04 8.501904594239972 8.12881191278374 8.680309220111994 1 2 -1
2181 291 2 0.418 8.444997263287247 2.9815112933946937 7.86195419101713 1 1 4
5104 702 3 0.145 2.7960382250523588 0.9628565310273022 0.5420131154877955 0 -2 0
3427 454 1 0.04 7.382995587161125 7.144090344454437 11.427944714260075 1 1 1
4628 622 1 0.04 3.8322760544741126 8.43376646001751 8.994644006879923 2 2 0
4627 622 1 0.04 3.2551297258827665 8.00977430559443 10.593508550311471 2 2 0
3999 531 9 -0.18 5.240539478022196 5.544272364469161 5.156685764197918 1 2 -1
4000 531 7 0.06 5.798613638960185 6.44308723469358 4.955927284991548 1 2 -1
1304 172 6 0.06 5.263184635991642 4.250294019363753 10.322453811971847 -2 -1 0
4625 622 4 -0.6830000000000001 5.049522434688002 7.107071902709638 9.904253597071316 2 2 0
1079 144 7 0.06 1.9303600749710377 7.811255115732559 7.316006565722906 1 0 0
4686 632 1 0.04 -0.20321243097518282 2.11289905223051 6.889862087110269 2 0 2
4570 613 3 0.145 9.424909907160371 1.413294473350271 5.7896482740565665 0 2 0
4626 622 1 0.04 3.118984773529397 6.72707062810515 9.271528631240502 2 2 0
2176 291 3 0.145 8.473831385954885 4.969055736172586 7.8309854092626505 1 1 4
2178 291 1 0.04 7.7538009749745385 5.132601236704215 7.001809390325366 1 1 4
1080 144 7 0.06 1.151990401226613 9.154276738934998 6.478038662453787 1 0 0
2586 346 2 0.418 -0.2894786425456431 9.476192203528255 10.657430722533592 2 1 2
2889 386 5 0.418 6.754038394256327 4.010605125605986 12.419658053536619 1 1 1
3126 416 1 0.04 5.2147297326776245 4.472179149366637 0.441792986020921 1 0 -1
3425 454 4 -0.6830000000000001 8.839254161399763 6.331193278890971 12.705507756862753 1 1 1
4001 531 7 0.06 5.855476311635792 4.813904326386346 4.588110765493299 1 2 -1
4002 531 7 0.06 5.404639993150151 5.263864655470531 6.2282636631189625 1 2 -1
3328 442 3 0.145 8.015240720370626 8.935435664652386 8.124859313596398 1 2 -1
1078 144 7 0.06 2.3359927393338933 9.432746450850182 7.8706684196457015 1 0 0
2179 291 1 0.04 8.280281501562683 5.770551355401164 8.517464782896331 1 1 4
1074 144 5 0.418 2.4142426411800906 9.350446431852642 4.360737768522841 1 0 0
160 21 6 0.06 7.753248284724636 9.224958715863517 0.14599190680098656 -1 0 -2
2177 291 4 -0.6830000000000001 8.227204394534699 3.7037801889074555 8.40093603722868 1 1 4
1306 172 7 0.06 4.849951605122086 1.5986672917688036 11.673238188571972 -2 -1 0
3428 454 1 0.04 8.93995150430104 7.993251569325209 11.41430682541694 1 1 1
1305 172 9 -0.18 4.595628811444366 2.6514054242733995 11.442046621493997 -2 -1 0
4624 622 3 0.145 3.70401887227215 7.518227092208764 9.652884829003243 2 2 0
1302 172 5 0.418 7.473226154280606 3.343638230326347 10.180149171982247 -2 -1 0
1301 172 10 -0.6830000000000001 6.862169465530986 3.253633660253507 10.980275857455231 -2 -1 0
4571 613 4 -0.6830000000000001 9.099588784207702 1.1892520492968712 7.156022088028964 0 2 0
1300 172 8 0.145 5.598334203012577 3.2284749432571056 10.488990019310041 -2 -1 0
1307 172 7 0.06 3.604447260296951 2.768989703285017 11.013001480499383 -2 -1 0
3424 454 3 0.145 8.41623648936313 7.008038289437232 11.484820383241997 1 1 1
3183 424 1 0.04 7.890260963368407 0.7202761995953679 12.17289046796218 -1 -3 0
2689 360 6 0.06 0.7900193513043594 6.4924587776274025 12.187303414771224 4 2 -1
3426 454 1 0.04 8.656977866109312 6.3797664373401854 10.642348675663829 1 1 1
1303 172 6 0.06 5.5795177300355006 2.583417161715928 9.577099121906956 -2 -1 0
4629 622 2 0.418 5.303553036327692 7.446203614601023 10.76306154502768 2 2 0
3813 506 9 -0.18 9.04894190852138 6.115105354330076 4.11231958570473 0 2 0
3330 442 1 0.04 7.059507918729936 9.105443208819795 8.708376886331509 1 2 -1
3812 506 6 0.06 8.610449156531676 5.167171522904046 2.2816557951944176 0 2 0
5105 702 4 -0.6830000000000001 3.1817446909456653 2.190822032105099 0.9881671875509933 0 -2 0
4687 632 1 0.04 0.7542328713983757 2.026479647281596 5.303485862452307 2 0 2
457 63 8 0.145 2.83083131676076 0.5027066704701048 18.88248554231623 -1 2 -1
691 93 1 0.04 2.981795696819092 6.568402217872818 13.38246642860574 0 0 1
3120 415 1 0.04 5.002895687747905 3.2933770082737266 18.85967940545691 -1 -2 0
3122 415 1 0.04 5.172440983510152 5.006375911110797 19.294129730900433 -1 -2 0
3118 415 3 0.145 4.464857610844401 4.139272163936981 19.130873730720438 -1 -2 0
3123 415 2 0.418 2.907124810265411 3.363672629849739 19.855789312251755 -1 -2 0
3121 415 1 0.04 3.9389534516494846 4.455291161610766 18.183128684971358 -1 -2 0
689 93 4 -0.6830000000000001 4.7052132092883 5.901136254277491 14.205281081558278 0 0 1
210 27 2 0.418 5.00432110668489 6.739805286901938 15.695550920710957 -1 1 0
2887 386 8 0.145 7.306458362181185 3.415928844086112 14.234286533733835 1 1 1
3119 415 4 -0.6830000000000001 3.553390404501299 4.023854796511804 20.177467310712963 -1 -2 0
206 27 4 -0.6830000000000001 5.080655699129637 7.052579201664981 16.62499710807844 -1 1 0
205 27 3 0.145 6.423325782152717 7.421032146312 16.79666031095766 -1 1 0
805 109 8 0.145 1.8741742157665624 2.822657586956777 14.665536517135113 2 0 -1
1471 195 3 0.145 0.24271701621853925 7.454703250942703 15.47190470198065 -1 1 2
5127 705 2 0.418 -0.2900240571293672 9.432949470852078 16.939226333365525 0 1 -1
807 109 5 0.418 0.3617130876848137 2.628334191180772 15.956233745482093 2 0 -1
1474 195 1 0.04 0.591998284518668 6.447404426993865 15.814845410701272 -1 1 2
207 27 1 0.04 7.019586467253454 6.986690085686792 15.979268413434129 -1 1 0
1476 195 2 0.418 1.8038215672655737 7.963723070480374 16.59948054248724 -1 1 2
2733 365 2 0.418 3.4874159935909645 7.062371166832996 17.644335586561144 -1 1 1
2729 365 4 -0.6830000000000001 2.774595204750686 7.446132887467452 18.191239529700024 -1 1 1
1472 195 4 -0.6830000000000001 1.12845487749162 8.406261472746811 16.050192361091803 -1 1 2
3743 497 4 -0.6830000000000001 9.177609119437847 0.6990114385739958 17.95618704147986 -2 -2 0
688 93 3 0.145 3.998678202649212 6.282172153700238 13.083461133045674 0 0 1
4872 663 1 0.04 0.10579529371324242 3.726007112621436 22.3842911229633 2 3 2
813 109 7 0.06 3.2951152574883382 2.7498532680741423 16.207138493322653 2 0 -1
465 63 7 0.06 2.772400394790163 0.7792352319636834 21.087217404082704 -1 2 -1
811 109 7 0.06 2.1868238326713456 4.170236661169074 16.350679122056643 2 0 -1
693 93 2 0.418 5.308422595610815 5.191279127747977 13.869059797029816 0 0 1
209 27 1 0.04 6.809391469143949 7.131545635703389 17.811837116099788 -1 1 0
2891 386 6 0.06 6.712382310949772 2.48589143033227 14.28832041191842 1 1 1
2892 386 9 -0.18 7.592012839913087 3.9820512278330744 15.65680450899787 1 1 1
208 27 1 0.04 6.465080808651595 8.524320238847015 16.712839371649615 -1 1 0
3746 497 1 0.04 8.334841114522689 1.8737577757217396 19.290961926756616 -2 -2 0
2894 386 7 0.06 6.640953535419674 4.342733717958446 16.094141094499115 1 1 1
2890 386 6 0.06 8.275592336913848 3.010114361208545 13.785268285359743 1 1 1
810 109 9 -0.18 2.731863666977042 3.4645384508849495 15.729816276039307 2 0 -1
460 63 6 0.06 3.6554193557267287 0.19870263617917527 18.22011678042362 -1 2 -1
3742 497 3 0.145 8.003689492820644 1.0916978543797402 18.619494255520884 -2 -2 0
3744 497 1 0.04 7.175672583275466 1.4731115334639429 17.958963538317175 -2 -2 0
3745 497 1 0.04 7.63866252348468 0.25960976897583904 19.213654407444963 -2 -2 0
2888 386 10 -0.6830000000000001 6.806180893952364 4.383874772954883 13.370722650630098 1 1 1
3433 455 6 0.06 8.098763674655686 0.996017158116889 24.363644020846316 3 3 0
806 109 10 -0.6830000000000001 0.9909738746777208 2.058252658066795 15.492875278134262 2 0 -1
2728 365 3 0.145 3.097058005895575 7.587761652226508 19.538686940873475 -1 1 1
812 109 7 0.06 3.451573908161293 3.929255867309495 15.145595388690428 2 0 -1
2731 365 1 0.04 4.135391597870135 7.887020552924121 19.726956167529856 -1 1 1
2730 365 1 0.04 3.038383157505064 6.7343721935722405 20.180431064142926 -1 1 1
5125 705 1 0.04 0.09010295152712344 8.341234818824324 19.005799431077794 0 1 -1
2893 386 7 0.06 7.927037546789633 3.1207945725761763 16.18269914371798 1 1 1
5132 706 1 0.04 7.969172329920104 8.417425837456056 23.652839488759465 -1 -1 1
462 63 9 -0.18 3.377566021657789 0.3805161722839498 20.30670688883175 -1 2 -1
3305 439 6 0.06 2.8857550859014585 4.812958917614258 24.685198623175815 1 1 3
2292 306 2 0.418 1.3902877680473626 0.25050523390091417 15.797676814445081 1 2 -1
3580 474 1 0.04 0.31802283900942285 5.512763657694287 18.36084374990374 0 1 2
458 63 10 -0.6830000000000001 2.50647537637178 1.9224177984612127 18.585002271670458 -1 2 -1
756 103 5 0.418 5.709158830751024 4.058273351566352 20.92479063362859 1 -1 -1
3579 474 1 0.04 1.0282058323078782 4.292820788088352 19.428871897840498 0 1 2
3829 508 1 0.04 0.03262007649104143 0.8368032650340349 20.91689218150174 1 0 0
459 63 5 0.418 2.5387066990191975 2.0982709467419713 17.627733030527537 -1 2 -1
3581 474 1 0.04 0.407049570554066 5.7756665170225485 20.08529060050577 0 1 2
1473 195 1 0.04 0.27491833856003856 7.424018130064548 14.392509407766887 -1 1 2
758 103 6 0.06 7.502129073779812 5.097593666879182 20.011821370421384 1 -1 -1
987 132 7 0.06 9.310297676059424 9.353183772233153 19.340305203680963 0 0 -1
2897 387 10 -0.6830000000000001 -0.1527193129353934 0.35782600141210724 25.070132886125016 1 1 0
3434 455 6 0.06 8.710055194591616 1.3926504243989373 22.75955731982218 3 3 0
3436 455 7 0.06 6.459459133127287 0.8534178478070827 21.662920117048603 3 3 0
3435 455 9 -0.18 6.827925479163578 0.4470365520631872 22.58805687729029 3 3 0
5129 706 4 -0.6830000000000001 6.9508274008460775 9.040741776127476 25.395652178466406 -1 -1 1
985 132 7 0.06 8.829266628898019 7.83615904923483 20.26235349480731 0 0 -1
3577 474 3 0.145 0.24417040344140395 4.979365120177688 19.3580489310629 0 1 2
2901 387 9 -0.18 2.2183210585331423 0.9267567244512783 24.45951423410538 1 1 0
1973 263 1 0.04 0.04046645591379855 6.365125084307596 24.890723626681133 2 2 -1
1957 261 1 0.04 0.4276184955045387 9.312652170375143 22.133079265896125 -1 -1 0
3430 455 8 0.145 7.749584574911417 1.386620992738378 23.35644085192963 3 3 0
3429 454 2 0.418 8.034600555139312 5.969200782586442 13.143032748081698 1 1 1
809 109 6 0.06 2.4987584330336983 2.2157581183920785 13.983468428738513 2 0 -1
984 132 9 -0.18 9.334717903871338 8.29175718377413 19.405538667317803 0 0 -1
3303 439 5 0.418 2.804714268721689 4.481296808083421 21.89678186168521 1 1 3
2732 365 1 0.04 2.4023788419908674 8.319783450498074 19.996388152608233 -1 1 1
3304 439 6 0.06 4.1140691167891825 3.945243626790374 23.940385408977534 1 1 3
808 109 6 0.06 1.314382414632557 3.568240466887047 14.056278590221673 2 0 -1
755 103 10 -0.6830000000000001 6.596684651440278 3.742701229695124 21.301698613006334 1 -1 -1
2895 386 7 0.06 8.314529417211713 4.745966514782673 15.658442948453738 1 1 1
3302 439 10 -0.6830000000000001 2.4362651620149114 4.5246963030072616 22.799998343620686 1 1 3
3307 439 7 0.06 3.7083962267852053 6.932607939609829 23.658411513630202 1 1 3
3308 439 7 0.06 4.802877484410427 6.191914082817767 22.661522246920644 1 1 3
2902 387 7 0.06 2.4953763521346186 1.26070845085901 25.45977470870453 1 1 0
3432 455 5 0.418 7.090874855282396 3.0418538206197683 22.696479212880202 3 3 0
759 103 9 -0.18 8.921951954154434 4.538783923100256 21.412484677557952 1 -1 -1
2903 387 7 0.06 1.897400544381664 1.81132297395804 23.888606723728163 1 1 0
2904 387 7 0.06 3.1092433590136794 0.4448305608590068 23.97774655003538 1 1 0
4101 544 7 0.06 7.151459582786758 9.043196253004853 13.490948102385284 1 1 0
5128 706 3 0.145 8.069300859517039 9.150799280259454 24.502814956020117 -1 -1 1
757 103 6 0.06 7.177136187229065 5.795354583204625 21.49732640283636 1 -1 -1
3301 439 8 0.145 3.4838623364593864 4.81866919984554 23.759546394645085 1 1 3
3306 439 9 -0.18 4.347225456479303 6.08396642624392 23.65859232471615 1 1 3
3309 439 7 0.06 4.888104071862494 6.20977968232693 24.518966066408556 1 1 3
3437 455 7 0.06 5.966960257424511 0.25046047439953134 23.235525399059494 3 3 0
754 103 8 0.145 7.486220324797115 4.89932379266286 21.01029253816273 1 -1 -1
760 103 7 0.06 9.078973014196137 3.530360695464615 21.166309640215484 1 -1 -1
5122 705 3 0.145 -0.02180646821242377 9.377526595320935 18.84762908092379 0 1 -1
463 63 7 0.06 4.335683130876849 0.7399925367939207 20.378184424954128 -1 2 -1
3431 455 10 -0.6830000000000001 7.136366742027445 2.641387697454371 23.56229029005611 3 3 0
761 103 7 0.06 9.219349408815269 4.756147682832444 22.413447409890587 1 -1 -1
986 132 7 0.06 8.71094779577179 8.107028237552987 18.5410974555169 0 0 -1
5131 706 1 0.04 8.982193209513106 8.822036504492148 25.031486578169638 -1 -1 1
1971 263 1 0.04 0.09023042884375554 6.677429683817635 23.198785929882952 2 2 -1
1701 225 2 0.418 8.328620303976612 0.06590604865403993 16.551672438050854 0 3 2
1956 261 1 0.04 0.9580972996968657 9.637810857311003 23.780713803923092 -1 -1 0
2290 306 1 0.04 2.0748524343780397 0.05173330932730382 13.620623157131813 1 2 -1
3152 420 4 -0.6830000000000001 1.954194208139684 4.82444546144122 27.504653140644912 1 1 1
493 67 8 0.145 2.2765319692610095 7.516419684506846 38.0325489146319 0 -1 -1
3000 399 9 -0.18 0.12091173261109112 7.713315323618889 29.768762815340615 0 0 -1
4740 641 1 0.04 6.650223930029022 8.460675328612405 29.743951670933072 -3 3 -2
3741 496 2 0.418 5.1349440259474 8.791997470690621 26.265945235381313 -1 2 0
496 67 6 0.06 2.9617166506896093 8.321830510785572 38.3060282760702 0 -1 -1
4555 610 1 0.04 4.198968145416798 1.8900920448048015 27.19697286363653 2 2 0
3002 399 7 0.06 1.0501757772745137 7.305201765158713 29.821181334157977 0 0 -1
2680 359 6 0.06 7.996160527081438 5.148321392590334 31.059378054657653 -1 0 -1
3391 449 1 0.04 4.151790693756481 4.169098176795385 31.203536365517895 1 1 0
4522 605 3 0.145 9.478085151635359 5.3131469682927985 37.07714656458377 2 -1 -1
2682 359 9 -0.18 9.22151409323561 6.2944259306615855 32.26367003996341 -1 0 -1
3001 399 7 0.06 0.2595257436656906 8.801761057632193 29.937625363410028 0 0 -1
3392 449 1 0.04 2.693974020681813 4.685295664739156 30.615417175548643 1 1 0
4556 610 1 0.04 5.317209403805927 1.4885405210808036 28.49113771864901 2 2 0
4738 641 3 0.145 5.79277207549992 7.9014986480278555 29.43817348823265 -3 3 -2
103 13 1 0.04 0.31803023482427073 2.3639729735861383 32.19871599775787 -1 0 0
4741 641 1 0.04 5.9973779023012375 7.606143384135617 28.429495598035505 -3 3 -2
3153 420 1 0.04 1.7092985226236057 3.0626994082612424 26.363393886055697 1 1 1
3388 449 3 0.145 3.5353856567986646 4.088900304820969 30.33748831112016 1 1 0
3389 449 4 -0.6830000000000001 4.180979726045345 4.683297316581266 29.249257072752876 1 1 0
3390 449 1 0.04 3.3105011801040454 3.05279990434009 30.27310591102673 1 1 0
3393 449 2 0.418 3.5193976411995753 4.709827050751944 28.513356323171333 1 1 0
3156 420 2 0.418 1.3364198502967306 5.534705374139665 27.824773873189702 1 1 1
4526 605 1 0.04 9.410956320241285 6.0385543597770575 37.917881173387336 2 -1 -1
4739 641 4 -0.6830000000000001 5.53038312144822 6.799932222680031 30.33645203977159 -3 3 -2
1506 199 1 0.04 7.744463308996176 1.913950162279773 31.907437579768523 0 -1 0
1840 243 7 0.06 1.653131035594361 1.3534855246061162 29.971819044551214 1 2 1
3736 496 3 0.145 3.6926584977835955 7.544512712259867 26.823383447025297 -1 2 0
4743 641 2 0.418 5.1637843018113525 6.092185256643659 29.799572102841484 -3 3 -2
3738 496 1 0.04 3.240518477247104 7.471176326414775 27.81325113512157 -1 2 0
4554 610 1 0.04 5.448896073774743 3.0081860757072523 27.611314384421544 2 2 0
2677 359 8 0.145 9.026093569970065 5.221597452984287 31.266621190349237 -1 0 -1
2679 359 5 0.418 8.931951651327296 3.727002536652704 32.524005280146646 -1 0 -1
4742 641 1 0.04 5.019347930252225 8.618175293583151 29.502580090130067 -3 3 -2
1504 199 3 0.145 7.4176435510870915 1.7400971302038426 32.897223896040636 0 -1 0
1508 199 1 0.04 6.292173858598977 1.8755819600409391 32.97680061737042 0 -1 0
1841 243 7 0.06 0.25926582810030663 1.565870608534419 28.766490420993854 1 2 1
4792 650 3 0.145 0.14280381927030078 1.7683282441697954 35.57152618075895 0 -2 0
3151 420 3 0.145 1.1684525778905197 3.911325290029724 26.76459931536998 1 1 1
1507 199 1 0.04 7.616134454864972 0.6618539394657325 33.22044171830997 0 -1 0
163 21 7 0.06 7.220632223171769 8.708418039776673 35.99222983787185 -1 0 -3
441 60 2 0.418 0.46231492988338885 7.193900371042377 34.018168806737705 0 1 -2
108 14 1 0.04 8.888481715589025 5.583207132065588 27.40602065450516 -2 -1 2
501 67 7 0.06 3.4100090764624165 5.679077362402204 37.60321795744022 0 -1 -1
2685 359 7 0.06 8.422333839281212 6.501379167135141 33.023147470044634 -1 0 -1
3154 420 1 0.04 0.45953000352880136 3.4950445601959923 27.443237599644323 1 1 1
2999 399 6 0.06 -0.29462198249940047 8.442131814271637 27.7845214320737 0 0 -1
1247 165 7 0.06 3.8535188966824956 0.4538368018458482 29.903575161031206 1 0 0
4794 650 1 0.04 1.1142881832956522 1.7725539668703587 35.12469677189671 0 -2 0
2021 270 1 0.04 2.376537441248639 8.036330718778972 31.793851634225252 -2 2 1
1839 243 9 -0.18 1.2726182401893473 1.1817105635110894 28.930655590203877 1 2 1
3737 496 4 -0.6830000000000001 4.322779131238524 8.810547004889594 26.78303246980104 -1 2 0
165 21 7 0.06 6.517574926796795 7.475748614166681 37.03129173976976 -1 0 -3
1240 165 8 0.145 3.2271768919843793 0.09112239750789071 31.92623192730192 1 0 0
5106 702 1 0.04 2.527397775868102 1.0682956257196778 37.66521733843612 0 -2 -1
500 67 7 0.06 2.0124481230346 5.725106009911368 36.66651881849608 0 -1 -1
4477 597 1 0.04 8.812308825949108 0.8660238022241092 28.694360149877337 0 0 -1
1505 199 4 -0.6830000000000001 8.086224351956313 2.6453811934633764 33.75157915547629 0 -1 0
2020 270 1 0.04 3.8563074249889837 7.345526493649681 32.65922013792692 -2 2 1
3739 496 1 0.04 3.041904325449059 7.363518690565812 25.943935670940235 -1 2 0
4553 610 4 -0.6830000000000001 6.208541133722605 1.3499122937484105 26.675374569380637 2 2 0
1246 165 7 0.06 5.125042122684174 0.14496055099824584 30.9185897678886 1 0 0
3155 420 1 0.04 0.6814007977964758 4.52495045175844 26.025793918976103 1 1 1
1842 243 7 0.06 1.8816441038330591 1.6651800254247697 28.18003909348662 1 2 1
157 21 8 0.145 6.7495790291296744 9.422057694712867 37.92810912336333 -1 0 -3
3740 496 1 0.04 4.519111957801244 6.810553475971213 26.839125711219076 -1 2 0
2017 270 3 0.145 2.8038448814371857 7.7705615983554495 32.76219263670547 -2 2 1
2019 270 1 0.04 2.8561662093998432 8.631771752977047 33.398026708648196 -2 2 1
497 67 6 0.06 1.4330245125847754 7.926887467327776 37.54207392118255 0 -1 -1
2018 270 4 -0.6830000000000001 1.9107398854129798 6.790054242627576 33.32075766687406 -2 2 1
102 13 1 0.04 0.5256739369311887 3.662913441763084 30.914906831799144 -1 0 0
498 67 9 -0.18 2.8163455745800303 6.380701044372888 37.07203407609952 0 -1 -1
1857 246 5 0.418 3.4348230574878906 2.451577353463493 36.96118592944447 0 1 -3
4796 650 1 0.04 0.2583564777858066 2.46700726911071 36.421993366136064 0 -2 0
4552 610 3 0.145 5.243319619803232 1.9457082755992339 27.49858035427859 2 2 0
1856 246 10 -0.6830000000000001 3.8343637216964748 2.571769325826902 36.05277053943678 0 1 -3
155 20 1 0.04 5.635157334417121 3.911375205303843 34.19806280863577 -1 1 -2
2678 359 10 -0.6830000000000001 9.51469589946576 4.048496499309183 31.74744849258963 -1 0 -1
1509 199 2 0.418 8.729045748066154 2.1290545609309097 34.218098656613385 0 -1 0
164 21 7 0.06 5.6122061775764225 8.867619711141106 36.28079876690189 -1 0 -3
156 20 2 0.418 3.6082394627760803 3.57937736157033 34.49073244034962 -1 1 -2
154 20 1 0.04 5.02249571185819 5.501171146538321 34.73385825981269 -1 1 -2
151 20 3 0.145 4.9890642381598065 4.720047556783173 33.98514844995616 -1 1 -2
1863 246 7 0.06 6.532062552519297 2.6539061603169207 36.255132353238686 0 1 -3
1862 246 7 0.06 6.040978283082248 1.5220854740068581 37.623861806136325 0 1 -3
499 67 7 0.06 3.4481991893600834 6.699488004507316 36.23291799084758 0 -1 -1
153 20 1 0.04 5.296374760060749 5.185782012034758 33.06342477538042 -1 1 -2
1858 246 6 0.06 4.796408276076103 1.4385184257918309 34.72328747818144 0 1 -3
1859 246 6 0.06 4.366581095310106 0.5655097899182063 36.27294101787948 0 1 -3
4527 605 2 0.418 8.939898557372688 3.5163296810382656 36.621837907296616 2 -1 -1
1855 246 8 0.145 4.710337638135643 1.4558132075741397 35.83027933644077 0 1 -3
152 20 4 -0.6830000000000001 3.683863355314389 4.2155420931947 33.7675745980832 -1 1 -2
1860 246 9 -0.18 6.080689406400946 1.6739407858579949 36.49147425822395 0 1 -3
1861 246 7 0.06 6.711473654390433 0.8468118252184801 36.20190690046908 0 1 -3
2022 270 2 0.418 2.2917701185566552 5.888039050238062 33.23819547741057 -2 2 1
4525 605 1 0.04 9.226158583731557 5.889920486967766 36.18158050145663 2 -1 -1
1243 165 6 0.06 3.0489860728039133 1.132299623106143 32.16383976883089 1 0 0
162 21 9 -0.18 6.509529800933043 8.56677113659878 36.75703799345878 -1 0 -3
100 13 3 0.145 -0.10500579204119648 3.0986496119353366 31.565087533886373 -1 0 0
3127 416 1 0.04 6.62340664072337 5.320029289324359 37.86020187289489 1 0 -2
4523 605 4 -0.6830000000000001 8.75543720769417 4.166679081197406 37.27856503483368 2 -1 -1
4557 610 2 0.418 6.1494749281792345 1.8142278233512836 25.839153668837547 2 2 0
5133 706 2 0.418 7.195843513763022 9.446891312903047 26.189632075964948 -1 -1 1
4190 556 6 0.06 1.615530265419579 9.321659889606126 27.283440711073798 1 2 1
4957 677 1 0.04 3.4994748298483214 9.527991968262302 31.018984037958244 -1 -1 -2
2683 359 7 0.06 9.442337349206538 7.3089277676075906 31.807645041107442 -1 0 -1
2443 327 8 0.145 5.940032536616559 11.145774247377833 3.585846879902114 0 -1 0
1176 157 5 0.418 5.7018729988613 16.365668295721974 5.05383486960945 1 2 0
2084 279 4 -0.6830000000000001 5.179423465204565 14.402248265276938 4.824353452389385 1 -3 2
2088 279 2 0.418 5.324814662119048 13.634768888598753 4.214311497857264 1 -3 2
2083 279 3 0.145 4.078057174903517 14.008816080151496 5.660975559453496 1 -3 2
2085 279 1 0.04 4.03616164051619 12.967155976848595 6.004984525965995 1 -3 2
2086 279 1 0.04 4.241268324641853 14.61717789808131 6.5732992609148555 1 -3 2
1175 157 10 -0.6830000000000001 6.031843399774794 17.264253299476813 5.029083099232507 1 2 0
2444 327 10 -0.6830000000000001 5.294726317100257 12.285333498769718 3.0873289396885304 0 -1 0
1174 157 8 0.145 6.694875559906387 17.426060091395627 6.225708371695331 1 2 0
2445 327 5 0.418 5.015585911442739 12.052217059763487 2.2048234352267113 0 -1 0
595 80 1 0.04 2.7713713361015637 12.19243523507698 3.6501129131519927 1 2 2
592 80 3 0.145 1.6991607488657894 11.996270514371837 3.6896889056684494 1 2 2
2450 327 7 0.06 7.5067114566543145 12.114820503680454 4.802006147382025 0 -1 0
2448 327 9 -0.18 6.763006357634879 11.316582299655488 4.87727559110319 0 -1 0
1275 168 7 0.06 7.430572255916251 17.521720727710846 10.928980566924542 1 -2 1
596 80 1 0.04 1.2362428230089084 12.309490239499551 2.730009618354651 1 2 2
597 80 2 0.418 0.3091245907235135 10.707949905524329 3.9207389685857894 1 2 2
2446 327 6 0.06 6.405680899409818 10.800562599116354 2.748941558593538 0 -1 0
2449 327 7 0.06 6.075834195495845 11.608325779292326 5.73715384524629 0 -1 0
2087 279 1 0.04 3.05859288840459 14.204162719659267 5.279504419727098 1 -3 2
594 80 1 0.04 1.3986322200770203 12.667051769307088 4.523300523689857 1 2 2
4426 589 3 0.145 1.4935378279641702 16.81595712383842 4.32740818152701 -1 0 -1
4427 589 4 -0.6830000000000001 1.0482290151618148 16.012383422857138 5.334679272000424 -1 0 -1
1177 157 6 0.06 7.759088394628749 17.164880734306244 6.006917236942114 1 2 0
5055 693 2 0.418 6.379856753276906 17.16712212797466 2.51943203952919 1 1 2
1178 157 6 0.06 6.353421973754082 16.672079650631062 6.943852553096978 1 2 0
2989 398 3 0.145 1.0833628237212323 18.55552726197302 0.8030013930724362 1 0 -1
2244 299 2 0.418 2.2650925010315084 14.391565627259773 0.33383541851960985 1 2 0
3333 442 2 0.418 8.965717702505478 10.559418087500957 8.7761383754183 1 2 -1
4429 589 1 0.04 1.261436491001737 17.881224194424014 4.47207465240882 -1 0 -1
3838 509 7 0.06 7.4921609660032145 14.557348526035224 1.7547956749110585 1 -2 2
1272 168 9 -0.18 6.555035134353443 18.014893138126357 11.299680990230888 1 -2 1
1273 168 7 0.06 6.022752269720613 18.44541614310796 10.443667906968592 1 -2 1
1179 157 9 -0.18 6.457406970013011 18.852202104787747 6.675392743260666 1 2 0
1656 219 2 0.418 4.377112143241396 10.702580826948795 0.2842345784866481 1 -2 1
4430 589 1 0.04 2.558779001540339 16.65712530589074 4.305446306368223 -1 0 -1
4428 589 1 0.04 1.0497963280148535 16.517428206177684 3.3926917454406857 -1 0 -1