LAMMPS data file via write_data, version 29 Aug 2024, timestep = 1000000, units = real

5982 atoms
10 atom types
5253 bonds
8 bond types
8319 angles
10 angle types
8083 dihedrals
7 dihedral types

-0.9212386827688874 39.86235868276914 xlo xhi
-0.5692706027907946 39.306380602788906 ylo yhi
-0.46134199349477 38.899561993476986 zlo zhi

Masses

1 1.008
2 1.008
3 12.011
4 15.999
5 1.008
6 1.008
7 1.008
8 12.011
9 12.011
10 15.999

Pair Coeffs # lj/cut/coul/long

1 0.03 2.5
2 0 0.5
3 0.066 3.5
4 0.17 3.12
5 0 0.4
6 0.03 2.5
7 0.03 2.5
8 0.066 3.5
9 0.066 3.5
10 0.17 3.12

Bond Coeffs # harmonic

1 340 1.09
2 320 1.41
3 553 0.96
4 268 1.529
5 340 1.09
6 340 1.09
7 320 1.41
8 553 0.96

Angle Coeffs # harmonic

1 55 108.5
2 33 107.8
3 35 109.5
4 55 108.5
5 37.5 110.7
6 33 107.8
7 37.5 110.7
8 33 107.8
9 50 109.5
10 35 109.5

Dihedral Coeffs # opls

1 0 0 0.45 0
2 -0.356 -0.174 0.492 0
3 0 0 0 0
4 0 0 0 0
5 0 0 0.318 0
6 0 0 0.45 0
7 0 0 0.468 0

Atoms # full

1321 179 3 0.145 3.3050422832760216 3.727322023289058 3.8330513886175277 2 -1 2
1326 179 2 0.418 2.731375419609827 5.2736450092001865 2.727445163120555 2 -1 2
1324 179 1 0.04 2.9945596352106745 3.2031977106955614 4.702917585389412 2 -1 2
1322 179 4 -0.6830000000000001 2.866977886346823 5.045980631724146 3.668626018420638 2 -1 2
1325 179 1 0.04 2.923656514145266 3.122845186385883 3.0120056077614326 2 -1 2
1323 179 1 0.04 4.354889272277535 3.591471762540162 3.8320742302714157 2 -1 2
4618 578 6 0.06 5.7308955334086225 8.184845662514844 2.0884051900134963 2 4 1
4620 578 9 -0.18 6.781378530225266 6.57917870521711 3.0710353806901387 2 4 1
4619 578 6 0.06 6.982884219387265 7.4383699075003555 1.024117492472862 2 4 1
4616 578 10 -0.6830000000000001 5.342621268783658 6.412443895858702 1.053169804899262 2 4 1
4615 578 8 0.145 6.204925086087302 7.272824853432922 1.7906667759411339 2 4 1
4617 578 5 0.418 4.525249295018832 6.267643411935704 1.546196339233239 2 4 1
1442 195 1 0.04 4.428656532942118 0.24292905469285486 1.7131367364222756 1 2 1
4621 578 7 0.06 7.274914712052624 5.589204910875343 2.9207528184011657 2 4 1
4313 544 6 0.06 3.8243804036848488 7.707248653450581 4.308707343252707 1 1 2
4623 578 7 0.06 7.493498850753456 7.208874505124905 3.5229748671536565 2 4 1
4622 578 7 0.06 6.033446997239102 6.38514852099157 3.8010831490172574 2 4 1
4312 544 6 0.06 2.0762896176248047 7.973653026587714 4.436822740930033 1 1 2
4221 534 5 0.418 1.269036272587262 6.779783093455211 1.3297244885262 -1 3 0
3173 417 7 0.06 2.5784445328565377 -0.06920946217881163 2.848139338658562 0 2 -1
4219 534 8 0.145 2.2173074074730614 5.629289739262908 0.12876654827940626 -1 3 0
4220 534 10 -0.6830000000000001 2.116426035796847 6.350528993907494 1.3439007107890095 -1 3 0
4783 596 7 0.06 6.394499566318856 1.4395546395242542 5.541285197856259 1 0 1
1565 211 1 0.04 6.583132140920336 -0.32041551652900035 12.234538517449131 2 0 0
5861 716 6 0.06 6.988077765905525 6.128967091627569 6.999322524739395 2 1 -2
4781 596 6 0.06 8.669023687529439 2.227846407672415 5.745226275254995 1 0 1
4692 586 9 -0.18 8.29804546263756 3.3752973319236963 0.3667233618323402 -2 2 -1
4777 596 8 0.145 8.349822414831905 1.4053364848888803 6.299634993857713 1 0 1
4648 581 7 0.06 0.3572049958740149 3.7167164566596815 12.271417248797608 0 2 2
4693 586 7 0.06 7.503884361609142 3.587871440210259 1.1369939587560443 -2 2 -1
3170 417 6 0.06 1.0851008202160766 -0.1778873927635951 4.754757239520483 0 2 -1
454 61 3 0.145 -0.07259383017361032 1.1084262710795652 1.4285614632926291 2 2 0
4780 596 6 0.06 8.684171587925372 0.5649520579295977 5.672082817016636 1 0 1
5811 710 7 0.06 0.2438793788802618 8.834443090388502 3.1967644542695504 -1 1 3
4716 589 5 0.418 6.7762910785991695 6.999302160057763 12.30815737218646 1 0 1
2433 326 7 0.06 7.283942229364788 0.026236191163720446 3.89340684453094 1 1 2
1935 259 9 -0.18 4.371116488605637 8.29103561838173 12.349205968313205 -1 1 1
4317 544 7 0.06 2.626891862030111 9.316810538700397 2.444960926415763 1 1 2
1438 195 3 0.145 4.379114093746414 -0.016654063940657937 0.6345029106533553 1 2 1
4689 586 5 0.418 6.286798664961117 5.120247975812605 -0.039298102822453385 -2 2 -1
5862 716 9 -0.18 8.845493739153909 5.437627296050696 5.894427045769404 2 1 -2
4778 596 10 -0.6830000000000001 8.914401258083727 1.4645012569558156 7.52564984577138 1 0 1
4369 550 7 0.06 0.37400083364792014 2.615831530364241 4.538371656464033 1 -1 -3
1319 178 1 0.04 8.803629748465033 0.4686130930718355 10.65399285266584 0 3 1
210 29 1 0.04 5.78882125802452 8.849413552431269 7.797385476250408 0 1 0
457 61 1 0.04 -0.7060481808820283 1.9896118293128775 1.2100029159666372 2 2 0
4227 534 7 0.06 0.3775938196967856 4.515211302232929 -0.22264060773004976 -1 3 0
458 61 1 0.04 0.7288479323938264 1.5272946758523358 2.044959551610859 2 2 0
4368 550 9 -0.18 -0.6687082834072013 2.8796979950012376 4.336832240423643 1 -1 -3
2425 326 8 0.145 9.15902374419827 0.14488318940649647 2.7193540932283753 1 1 2
1936 259 7 0.06 4.598757643360701 7.583777820616056 11.529955936008243 -1 1 1
4225 534 7 0.06 1.3354139912460354 3.833519597353206 1.0488916847490586 -1 3 0
2432 326 7 0.06 7.158092675807472 0.5425856844325212 2.1486330176555164 1 1 2
4310 544 10 -0.6830000000000001 3.2740411463721113 9.074401596822188 5.67086756099157 1 1 2
1561 211 3 0.145 5.61276412043582 -0.47726891879420635 11.791148108651903 2 0 0
4782 596 9 -0.18 6.851648585836212 1.2848830038743855 6.420618707916068 1 0 1
4715 589 10 -0.6830000000000001 7.3765091843328126 7.242431898737446 11.608963720452975 1 0 1
4785 596 7 0.06 6.5127205436127635 0.28163489644366424 6.713008593997655 1 0 1
4311 544 5 0.418 3.2358031660287088 8.412899407544211 6.428825833843024 1 1 2
5528 679 6 0.06 7.195387390235581 2.679391174607538 10.144249747438655 0 0 0
5527 679 6 0.06 7.754126789882536 4.1573399393188435 10.860210539547355 0 0 0
1441 195 1 0.04 5.370696321405051 0.09924849835295735 0.2040188383913203 1 2 1
5860 716 6 0.06 7.716138286207663 7.294830497407702 6.059807981282487 2 1 -2
4779 596 5 0.418 8.636392767067425 2.3754232284167633 7.8727654817505925 1 0 1
5525 679 10 -0.6830000000000001 8.60636001611586 3.837643110453632 9.16843443973349 0 0 0
3172 417 7 0.06 3.547710858069495 -0.2857504305699029 4.3038140726879215 0 2 -1
5857 716 8 0.145 8.038717839860128 6.4762849245921705 6.689994985633295 2 1 -2
4642 581 8 0.145 1.856528467082104 5.376347628180661 11.97049129658033 0 2 2
2742 367 2 0.418 0.2785152646694897 1.3395909027141157 11.500451194359078 -1 2 -1
213 29 2 0.418 7.414584741517828 8.267787114496702 10.101623742724618 0 1 0
4784 596 7 0.06 6.454863958688716 1.9922416534039264 7.2218803409628585 1 0 1
208 29 3 0.145 5.93467621957156 8.895948662242503 8.899796164673221 0 1 0
720 96 2 0.418 2.7133959463266297 8.327792834269609 8.488505733035554 -1 -4 0
5526 679 5 0.418 8.698487251779811 4.796965996998469 8.995397885096448 0 0 0
4366 550 6 0.06 -0.26303998805345885 4.259027793436916 5.794864235749029 1 -1 -3
3451 448 7 0.06 4.059742902068908 2.3767668485306785 8.176099644627392 0 4 0
2430 326 9 -0.18 7.706282705521117 -0.07859886336716587 2.8969400786175594 1 1 2
5529 679 9 -0.18 6.212054415951993 4.340704389826851 9.38830841542078 0 0 0
717 96 1 0.04 1.8211705796708193 6.179869584968394 6.977233494440682 -1 -4 0
4309 544 8 0.145 3.0266205181167636 8.472084783599845 4.48278240517173 1 1 2
4224 534 9 -0.18 1.4232690174666072 4.357900918589053 0.11164324756308275 -1 3 0
1564 211 1 0.04 5.737141826624008 -0.10880310031099766 10.768570579618075 2 0 0
4649 581 7 0.06 1.6358557870350983 3.3907621112664263 11.140635548328218 0 2 2
3447 448 5 0.418 0.8672938006828965 2.46801742210953 6.4814005006099515 0 4 0
5858 716 10 -0.6830000000000001 8.87111562234236 6.743057860254733 7.837780161473175 2 1 -2
5532 679 7 0.06 6.213366877401711 5.381228743739576 9.417519644162708 0 0 0
4650 581 7 0.06 0.31234706774191623 4.51713489941498 10.70017997500684 0 2 2
4647 581 9 -0.18 1.0142617543925678 4.245668656691269 11.495955423004162 0 2 2
3449 448 6 0.06 1.0915085947243965 2.9229902105425003 8.641578302211498 0 4 0
715 96 3 0.145 1.7444000253585021 6.8084052351028905 7.904430943079987 -1 -4 0
5530 679 7 0.06 5.278185163517988 4.0698844110145584 9.965037081476664 0 0 0
3446 448 10 -0.6830000000000001 1.8135757564879254 2.5815237070750863 6.79290674298092 0 4 0
718 96 1 0.04 1.6547128563928264 6.111739221111124 8.698693478681527 -1 -4 0
4646 581 6 0.06 2.248816918839676 5.851847389073225 11.00242781465593 0 2 2
719 96 1 0.04 0.7823245736281124 7.332823315939291 7.780630114566687 -1 -4 0
5531 679 7 0.06 5.965909036723239 4.0920959293009505 8.35876343119196 0 0 0
3453 448 7 0.06 3.407317859891492 4.076762955243133 8.259696588904605 0 4 0
5859 716 5 0.418 8.403044771531812 7.4544416759360885 8.281502267336956 2 1 -2
3450 448 9 -0.18 3.200076571092593 3.024808110676327 8.549871325786032 0 4 0
5524 679 8 0.145 7.4498087551154235 3.69285040051784 9.881737203266194 0 0 0
5291 653 10 -0.6830000000000001 1.858032544382866 0.7029027588342884 12.284432457083158 2 -2 0
4694 586 7 0.06 9.109280165563254 4.120674321730486 0.44342160767339656 -2 2 -1
3448 448 6 0.06 1.834192584556979 1.2912261537549325 8.494604593779329 0 4 0
4714 589 8 0.145 8.637181494060142 7.47807444654555 12.151385262102504 1 0 1
3445 448 8 0.145 1.9093029102363999 2.388338777155826 8.188382127167255 0 4 0
3452 448 7 0.06 3.2416243828781512 2.981272394118001 9.59948450723959 0 4 0
5804 710 10 -0.6830000000000001 -0.38454200999784505 7.589658684707111 0.8248904836483604 -1 1 3
5292 653 5 0.418 2.8474696766759884 0.6460340877540474 12.182685142143312 2 -2 0
1439 195 4 -0.6830000000000001 3.4136795194795884 0.8461305181012693 -0.016624595663892794 1 2 1
716 96 4 -0.6830000000000001 2.871593758394236 7.663041662721367 7.811283795003094 -1 -4 0
1562 211 4 -0.6830000000000001 4.590145949661799 0.20016693615991776 12.530225560826798 2 0 0
211 29 1 0.04 5.244719602980465 8.351219247139326 9.506376911730095 0 1 0
456 61 1 0.04 0.24936919584406558 0.8000307277423988 0.44734219144104204 2 2 0
455 61 4 -0.6830000000000001 -0.7889556201910064 0.08942463805237588 2.100667037773305 2 2 0
4643 581 10 -0.6830000000000001 1.065039488965048 6.364259105540487 12.555017924009096 0 2 2
5863 716 7 0.06 8.391493686196995 5.117613191704417 4.938638676809962 2 1 -2
2738 367 4 -0.6830000000000001 -0.23573852795268924 1.4831093622892042 10.656560370564737 -1 2 -1
4695 586 7 0.06 8.640670991874288 2.3827340694803096 0.6087008807726679 -2 2 -1
209 29 4 -0.6830000000000001 7.291722025718078 8.530301043439348 9.131279908316358 0 1 0
4370 550 7 0.06 -0.5538053732161696 3.3150614320523286 3.3544724671255293 1 -1 -3
1723 232 6 0.06 -0.3402209058278768 8.284557364485623 9.83995874430465 0 -2 0
4222 534 6 0.06 3.2402605960166184 5.540454744928593 -0.08638278388833437 -1 3 0
4645 581 6 0.06 2.7157462615372054 5.025808491331015 12.567439615945565 0 2 2
1937 259 7 0.06 5.243545601021925 8.929162436536942 12.20446152142479 -1 1 1
5864 716 7 0.06 9.046232252289514 4.552172865763128 6.51232943082942 2 1 -2
1317 178 1 0.04 9.015225769233293 0.8438873467841637 12.34440433848478 0 3 1
1938 259 7 0.06 3.548391812038335 8.7972640808514 12.018857854415959 -1 1 1
5815 711 6 0.06 9.199457596081713 8.680868226820408 3.7874637060437415 -1 0 3
459 61 2 0.418 -0.06524257608137052 -0.5028308433217488 2.443929205600503 2 2 0
5808 710 9 -0.18 -0.2749106822811024 9.384599468705172 2.4666362239259936 -1 1 3
4005 510 5 0.418 2.773879854449549 4.341267341581279 17.22815400666102 0 2 1
4004 510 10 -0.6830000000000001 2.7567770038658423 3.803349284838202 16.452035069150373 0 2 1
3597 464 7 0.06 2.3958351643717584 6.947885339121959 16.90746583457314 0 3 0
1023 136 2 0.418 0.5534911826961622 2.9589736481923006 22.498962542229894 -1 -1 -2
3595 464 7 0.06 3.818298139438107 6.067793218396571 16.485039157819017 0 3 0
4003 510 8 0.145 2.2591590608089778 2.5735880183270092 16.850266129314484 0 2 1
3782 485 6 0.06 6.921115857490765 1.7396794680103973 25.769718848195446 2 0 0
4721 589 7 0.06 8.760841918697585 5.744250921396047 13.421665467404258 1 0 1
3708 477 5 0.418 1.2910244939703133 4.823976708870684 15.874912222658853 0 1 5
3707 477 10 -0.6830000000000001 0.5270840864062978 5.245617360231235 15.36708745666892 0 1 5
5290 653 8 0.145 1.6519230480919487 1.0010306710526664 13.626560523204855 2 -2 0
3783 485 9 -0.18 5.598205346588206 3.102391923658895 25.118364103651178 2 0 0
3784 485 7 0.06 4.597687235811233 3.2880910775109817 24.726833962526612 2 0 0
4289 541 7 0.06 6.834687677278681 -0.04491629481792514 14.878365406770918 -2 1 1
4007 510 6 0.06 2.6196872306517585 1.8515977633629355 16.108834870525527 0 2 1
1933 259 6 0.06 4.519961018576902 8.299741530001237 14.609039358216402 -1 1 1
5298 653 7 0.06 0.3052687546511381 0.20225137926128078 15.051133883548195 2 -2 0
5294 653 6 0.06 2.697323702643597 1.008735816082569 14.083586023021548 2 -2 0
5028 623 7 0.06 7.6330734672974465 -0.035442874115036216 21.868355381701086 1 3 0
1930 259 8 0.145 4.402310574480417 7.662970620859943 13.712874326524386 -1 1 1
4008 510 9 -0.18 0.6518241306053767 2.54655626073203 16.874745290481492 0 2 1
4009 510 7 0.06 0.2567214206636108 2.535008892475954 15.853257986693968 0 2 1
853 116 3 0.145 1.862867753683373 0.6111551035686624 25.47670485385762 0 0 1
4644 581 5 0.418 0.7523534452888203 6.1333600155710695 13.451961388840232 0 2 2
5044 625 7 0.06 7.019621436096906 3.8383836378843146 16.383748513888023 2 -1 -2
4006 510 6 0.06 2.5289197333583124 2.321678277659415 17.89377084774303 0 2 1
1050 140 1 0.04 5.7802513976220595 3.778016460676807 12.992747924036214 -1 -4 -2
2603 349 4 -0.6830000000000001 9.046546590749498 5.934395843920158 22.259831266337674 1 -1 0
3987 508 5 0.418 8.085059785695904 6.931813434082554 23.6248383952833 -2 -2 -2
1049 140 4 -0.6830000000000001 4.555362303635162 4.657723601805755 14.502402197738373 -1 -4 -2
5043 625 9 -0.18 6.78606844670184 3.8533203911097997 17.4765933830492 2 -1 -2
5038 625 8 0.145 7.590235660957209 2.686555322214466 18.072036415824627 2 -1 -2
1931 259 10 -0.6830000000000001 5.552491702194159 6.836373348799235 13.72142410898857 -1 1 1
1932 259 5 0.418 5.342730001072706 5.959817453205102 14.163988719027836 -1 1 1
1048 140 3 0.145 5.1970158865743326 3.5589796565151506 13.83928591957264 -1 -4 -2
1022 136 1 0.04 1.8215579882839932 1.0482353689161275 22.23273782583721 -1 -1 -2
4463 561 10 -0.6830000000000001 4.744521311796478 3.8396920115785065 20.831049122318728 3 1 -1
3714 477 7 0.06 0.11306486665668802 5.826382409557737 17.95908925394742 0 1 5
5293 653 6 0.06 1.1101662743235852 1.9433311931216002 13.641034472422138 2 -2 0
1052 140 1 0.04 4.433928214984991 2.9595807270488104 13.30271858052372 -1 -4 -2
3990 508 9 -0.18 7.465977507742588 5.700099987086411 25.771622370564646 -2 -2 -2
1053 140 2 0.418 3.8271582542581184 4.278730305350109 15.006058789984905 -1 -4 -2
1051 140 1 0.04 5.8384985778963365 2.889029478806366 14.461510764118925 -1 -4 -2
3706 477 8 0.145 -0.15181414202343968 6.399158335000288 15.898534080166176 0 1 5
1566 211 2 0.418 4.492811611084903 -0.16488802742632563 13.40230333624076 2 0 0
4011 510 7 0.06 0.2561481588150143 1.58011568669329 17.341178512984058 0 2 1
2383 320 6 0.06 3.103365796767405 -0.01030458643352894 19.198812650516253 3 2 1
1021 136 1 0.04 0.5403106921334613 0.24238628900805093 21.273142539481363 -1 -1 -2
4010 510 7 0.06 0.17469622721431466 3.262981439974924 17.45433250657741 0 2 1
623 84 6 0.06 1.7556652620995132 8.679991473807673 21.329960997909964 0 -1 0
5041 625 6 0.06 7.209433107324584 1.8712645473868377 17.392983096825933 2 -1 -2
1823 245 6 0.06 0.6751794650376326 5.139164412408611 24.861740460415476 -2 -2 -4
4469 561 7 0.06 4.510488000038279 1.4360878657310292 22.419461824710122 3 1 -1
5042 625 6 0.06 8.706241289891851 2.8660927536080996 18.011312155831266 2 -1 -2
2604 349 1 0.04 7.384829079876237 4.969320847197073 21.950420642251494 1 -1 0
4717 589 6 0.06 8.299943132701399 8.128013655898478 12.996794501276831 1 0 1
3993 508 7 0.06 7.791085434545078 5.06951970807128 24.962660264429775 -2 -2 -2
627 84 7 0.06 -0.18995273860113615 6.373407460396734 22.00048284970516 0 -1 0
3294 431 5 0.418 -0.5268696831567639 8.036613934067468 24.551385569985477 -1 0 1
4465 561 6 0.06 3.743555766030891 2.534764186214099 19.6614172118985 3 1 -1
1934 259 6 0.06 3.564767895697141 6.948049341294997 13.822061223651316 -1 1 1
4288 541 7 0.06 6.427493407191537 -0.5009297315326208 16.58663770951137 -2 1 1
3710 477 6 0.06 0.6325781812504829 7.119672384876627 15.802164225013925 0 1 5
4470 561 7 0.06 5.7407000777212005 1.4524978451702726 21.10626786204387 3 1 -1
3590 464 10 -0.6830000000000001 2.810655168536195 5.105393408557759 18.791761158030177 0 3 0
3592 464 6 0.06 4.657471397536393 6.075223277103392 18.71898439899733 0 3 0
3589 464 8 0.145 3.5619413225047145 6.251619939925779 18.599682049570053 0 3 0
3596 464 7 0.06 3.970379997622084 7.665957785161407 16.953285399795135 0 3 0
3594 464 9 -0.18 3.41686641312529 6.784242115470198 17.177429774908834 0 3 0
695 93 7 0.06 7.161163317447434 8.464516428750484 21.173256752373284 -2 -1 -2
3591 464 5 0.418 3.3344809794817856 4.641307316595624 19.47652978343365 0 3 0
4464 561 5 0.418 5.618987289555774 3.489214235113999 20.53954656304668 3 1 -1
2602 349 3 0.145 8.404657289704641 4.838030959020238 21.669002175484277 1 -1 0
3537 458 5 0.418 6.89930635391234 9.350973832454091 24.283765539625165 -1 0 2
4466 561 6 0.06 2.9444237128582698 2.9723812305179123 21.105034473864915 3 1 -1
5046 625 7 0.06 5.688460210127897 3.745847454413868 17.58954218894792 2 -1 -2
3593 464 6 0.06 3.1914377076026605 7.02416309430908 19.198890625308888 0 3 0
625 84 7 0.06 1.0948172065685609 6.261195353877573 20.735450082735653 0 -1 0
693 93 9 -0.18 6.884897174341528 7.894983961938445 20.27341178946502 -2 -1 -2
2907 387 7 0.06 4.509070451747348 7.787965906661039 24.701411477610257 0 2 -2
3781 485 6 0.06 6.214276576149244 1.1823574461093331 24.2077937325722 2 0 0
621 84 5 0.418 -0.5421502332180581 9.070467612034154 22.243060245228868 0 -1 0
5022 623 5 0.418 8.596752186511182 -0.19108477160101822 18.16419102170476 1 3 0
694 93 7 0.06 5.945060698072237 8.388611465459494 20.009471142637885 -2 -1 -2
696 93 7 0.06 6.6501063852884785 6.846755705837365 20.425593572462144 -2 -1 -2
3778 485 8 0.145 5.995532242355821 1.6819565122863134 25.2351670331695 2 0 0
5295 653 9 -0.18 0.8715561380836214 -0.16208421840086434 14.216018665048805 2 -2 0
3989 508 6 0.06 8.96555335014901 7.180961700586076 25.709819120769755 -2 -2 -2
856 116 1 0.04 0.9685218248979113 0.7074264572368543 24.897239994663654 0 0 1
5021 623 10 -0.6830000000000001 8.099088367358302 -0.12689500291072303 18.981344508539546 1 3 0
1020 136 1 0.04 0.3698297405227713 0.3949892378889597 22.877555253040093 -1 -1 -2
620 84 10 -0.6830000000000001 0.22623246477100256 8.817481293214016 22.79100302833946 0 -1 0
1820 245 10 -0.6830000000000001 1.9702111662157735 3.8933914258033653 23.98575470290155 -2 -2 -4
3986 508 10 -0.6830000000000001 7.607342101653938 7.535367204028091 24.240270120753927 -2 -2 -2
3985 508 8 0.145 7.903570835681531 7.1413483275405145 25.55748848789182 -2 -2 -2
2900 387 10 -0.6830000000000001 3.612414948146732 5.736025023979745 22.52728573415408 0 2 -2
619 84 8 0.145 1.070121509699696 8.057425376100973 21.982482215853683 0 -1 0
2605 349 1 0.04 8.453599672709466 4.92467316235237 20.51581260248149 1 -1 0
4467 561 9 -0.18 4.711131382294117 1.4510880315561785 21.353625467599198 3 1 -1
624 84 9 -0.18 0.3594017518407009 6.904879892548652 21.256653642080238 0 -1 0
5040 625 5 0.418 7.643035304653376 1.6122810450428555 19.620557951538846 2 -1 -2
1822 245 6 0.06 0.8547228751467897 3.4773679984555077 25.44974128074315 -2 -2 -4
3780 485 5 0.418 4.178893622412913 1.020759959607209 25.54444684215541 2 0 0
5039 625 10 -0.6830000000000001 7.2682355082534595 2.4910343627011775 19.39965686924417 2 -1 -2
5045 625 7 0.06 6.997181956420915 4.891685571298242 17.810417999571413 2 -1 -2
1821 245 5 0.418 2.4857051552245366 4.694567588918839 23.660164823881757 -2 -2 -4
2904 387 9 -0.18 3.9922996714128898 7.532046360856217 23.83296197622118 0 2 -2
4462 561 8 0.145 3.936632358037885 2.682022463699743 20.67497021303677 3 1 -1
2902 387 6 0.06 5.572431718233127 6.348971697255407 22.64246209861095 0 2 -2
3785 485 7 0.06 6.272406622580881 3.544133768391025 24.409281009073528 2 0 0
622 84 6 0.06 1.7193343689043212 7.599552001916397 22.64406017631583 0 -1 0
1018 136 3 0.145 0.7540722513482616 0.9520063786702639 22.083222557608963 -1 -1 -2
4468 561 7 0.06 4.215001599554607 0.5729288027625059 21.031481418318645 3 1 -1
688 93 8 0.145 8.074014854696733 8.124784637888485 19.285532653258098 -2 -1 -2
2906 387 7 0.06 3.868802997495755 8.388370413331987 23.202142507628874 0 2 -2
2905 387 7 0.06 3.0883685756664745 7.427344495325538 24.304722314022907 0 2 -2
854 116 4 -0.6830000000000001 2.85513041275324 1.2466578388253293 24.6467977173152 0 0 1
2901 387 5 0.418 3.8844657921668047 4.921532683386547 22.0022962588372 0 2 -2
2899 387 8 0.145 4.624127451851801 6.2642779152182815 23.233265715571015 0 2 -2
2903 387 6 0.06 4.84754586155885 5.693180298006216 24.172032360157306 0 2 -2
1019 136 4 -0.6830000000000001 0.14663340650556167 2.192638176804157 22.006945364499774 -1 -1 -2
858 116 2 0.418 2.487251455235762 2.081228996159724 24.268264853140902 0 0 1
1819 245 8 0.145 1.3478484478260326 4.391424373305691 25.154047528951203 -2 -2 -4
2606 349 1 0.04 8.855079291266446 3.9680430299668856 22.07410383128806 1 -1 0
692 93 6 0.06 7.8816337220447945 7.660590812435881 18.257904580463773 -2 -1 -2
3711 477 9 -0.18 -0.6754624199889321 6.218550854178119 17.350033312748984 0 1 5
2190 294 5 0.418 5.660869200541936 -0.5427874028870768 25.072130146542417 0 3 1
626 84 7 0.06 -0.27064630209169327 7.2111524476744355 20.38525924721171 0 -1 0
691 93 6 0.06 8.883431449927699 7.6236257503957745 19.75900350700767 -2 -1 -2
3037 402 7 0.06 1.435828438084335 6.020130719054004 29.68678985474988 -1 0 1
4635 580 5 0.418 7.131485071062983 6.266829180513275 30.223703050652297 -1 -3 2
4654 582 6 0.06 1.8798942501650275 0.4699647363634303 31.81275042521098 1 -1 -1
4651 582 8 0.145 2.542758696046178 1.3305159692131638 32.14344037984525 1 -1 -1
4656 582 9 -0.18 2.1230715516418157 2.6138274269804387 31.459870887688144 1 -1 -1
4637 580 6 0.06 7.185996646375681 3.9292726114238388 28.760314796066723 -1 -3 2
4655 582 6 0.06 3.5642824319073307 1.0228516629688371 31.939931510703552 1 -1 -1
4641 580 7 0.06 5.389145604534957 4.679387919297226 30.967040313974646 -1 -3 2
4657 582 7 0.06 1.2007714926990847 2.9118865347697183 31.85057418958437 1 -1 -1
4638 580 9 -0.18 5.601777776912113 4.000785217851215 30.216617255272194 -1 -3 2
4633 580 8 0.145 6.875787545102612 4.486762810966295 29.646625643976783 -1 -3 2
4636 580 6 0.06 7.597265748102602 4.263044982037745 30.50239125185778 -1 -3 2
4639 580 7 0.06 5.587188741431379 2.956451401860975 30.614415194957083 -1 -3 2
4634 580 10 -0.6830000000000001 6.952074900879348 5.887490832223353 29.309871475333697 -1 -3 2
3031 402 8 0.145 0.12758141198536177 6.964667982188364 31.132932786204492 -1 0 1
4640 580 7 0.06 4.888716791290123 4.0143932597028344 29.42926363869583 -1 -3 2
3038 402 7 0.06 0.43938951610270216 7.184211873823221 28.940363757373344 -1 0 1
618 83 7 0.06 3.6496532861114312 8.464129352255826 36.99701632042585 1 1 0
2695 361 6 0.06 -0.48967842435520476 0.8776836772940875 27.58898698040068 3 -1 1
3036 402 9 -0.18 0.42029838305147926 6.380531745908765 29.68732234283082 -1 0 1
5321 656 6 0.06 8.485492459793619 6.980096643973959 33.72853656265707 2 0 1
5318 656 10 -0.6830000000000001 7.391855066057861 6.571539124462619 32.09978633711186 2 0 1
1826 245 7 0.06 1.8756509345698462 5.026443265668916 27.20833194443212 -2 -2 -4
3035 402 6 0.06 1.0446812939564234 7.520611984699059 31.519321505052122 -1 0 1
3992 508 7 0.06 7.818296789548677 5.258697853458361 26.712795696010385 -2 -2 -2
309 42 7 0.06 6.224869332885888 0.5236390019139017 28.497186242714772 -1 -2 0
3039 402 7 0.06 -0.308178949694463 5.642420300959905 29.32606984582723 -1 0 1
5319 656 5 0.418 7.466605705740324 7.544475563819013 31.960735857028375 2 0 1
2699 361 7 0.06 0.7123037782097272 2.77245570022533 28.29747997313595 3 -1 1
3779 485 10 -0.6830000000000001 5.10113550105552 0.917038305808294 26.00683722006355 2 0 0
779 105 4 -0.6830000000000001 3.2735682471611494 0.07626945517658734 36.727445288370774 1 0 2
3250 426 6 0.06 7.903519840636161 0.7506629140647507 38.3051571793576 -1 -1 0
5469 672 7 0.06 2.866386532717174 8.903960046433447 28.329401008933406 -1 -1 0
303 42 5 0.418 4.432698874014715 -0.16433829262999788 27.11691685827683 -1 -2 0
1538 207 7 0.06 -0.19917688718390147 4.89751646599009 34.252961368686265 2 -1 -1
3034 402 6 0.06 -0.050390450045958546 6.272588844439771 31.97967807709911 -1 0 1
1537 207 7 0.06 0.7391591858893158 3.4484900954779683 33.85749705479364 2 -1 -1
4652 582 10 -0.6830000000000001 2.441940893174834 1.4907249811570464 33.52868242613038 1 -1 -1
4659 582 7 0.06 2.9736084135358576 3.344943982577553 31.497205700058473 1 -1 -1
4362 549 7 0.06 7.530000466885037 9.347237177493428 33.5599678033265 3 0 0
855 116 1 0.04 1.7562206564072578 1.2682774233513656 26.317666586351894 0 0 1
564 77 1 0.04 4.130630665920798 7.069610268877069 32.302657021897566 -1 0 1
3988 508 6 0.06 7.466026439701125 7.885695475675943 26.218444069383267 -2 -2 -2
4658 582 7 0.06 2.16385490269806 2.4081933487293425 30.392715104357393 1 -1 -1
3830 490 7 0.06 6.17272434864172 2.4164969333787174 34.14994296924208 2 0 -2
563 77 4 -0.6830000000000001 2.7295130963510807 5.60735621611807 32.177065918354806 -1 0 1
1237 167 1 0.04 -0.4845596941854141 -0.09644341278627622 32.631606260953454 -2 2 2
3254 426 7 0.06 6.588551931906369 -0.5656487807067093 36.29658010881899 -1 -1 0
3247 426 8 0.145 8.160547454963835 -0.18084148760455437 37.81885370340193 -1 -1 0
4226 534 7 0.06 1.9126460946335495 3.642515685828765 38.858251922380276 -1 3 -1
615 83 9 -0.18 4.7186796018022745 8.652007926094823 37.280717459456376 1 1 0
1539 207 7 0.06 -0.6718574359622277 3.3451416581541786 34.92724990283302 2 -1 -1
4691 586 6 0.06 6.8053910279868814 2.867426961072609 38.29920934589969 -2 2 -2
683 92 4 -0.6830000000000001 1.2200463365999359 7.979340882930801 35.35616652033601 2 -1 -1
1536 207 9 -0.18 0.22964978762286403 3.9599698830314107 34.68819450420361 2 -1 -1
5464 672 6 0.06 5.174201457861814 8.867350564754524 27.028831211824947 -1 -1 0
1443 195 2 0.418 3.465448545315243 0.6679639089524037 38.36006465127878 1 2 0
1234 167 3 0.145 -0.8935388296187268 0.6418455199326805 33.38279474833438 -2 2 2
782 105 1 0.04 1.2949140208202423 0.708228165054869 36.64307916947641 1 0 2
685 92 1 0.04 0.6484230661916912 8.3104531847819 33.52834012937816 2 -1 -1
5320 656 6 0.06 6.9329285781608805 6.250305583487453 33.97226404152463 2 0 1
3295 431 6 0.06 0.29013442953332214 9.260209114803274 26.392864559628435 -1 0 1
2700 361 7 0.06 -0.3011431002203585 3.006548494962919 29.671938475497186 3 -1 1
1534 207 6 0.06 0.4287983736601453 4.70234804570854 36.740382529273795 2 -1 -1
1824 245 9 -0.18 2.3527034301207066 4.902785644034481 26.245648186621622 -2 -2 -4
5322 656 9 -0.18 8.37766730049315 4.859673658638409 33.62910442337168 2 0 1
778 105 3 0.145 1.8704679251329486 -0.20375407946729368 36.875554164998135 1 0 2
1825 245 7 0.06 3.198865632922698 4.263457884113819 26.448756281299318 -2 -2 -4
617 83 7 0.06 4.650169613821943 8.34178988972188 38.37941196060699 1 1 0
307 42 7 0.06 6.499331119291035 -0.5485587821783209 29.901341861399008 -1 -2 0
5324 656 7 0.06 7.704406575148504 4.0384039992383265 33.57050755535836 2 0 1
562 77 3 0.145 3.6309682028043353 6.352197864569938 32.894531964011755 -1 0 1
566 77 1 0.04 4.435318992404333 5.87679309697237 33.43426474450518 -1 0 1
3786 485 7 0.06 5.791640033510639 3.6808931359756434 26.054589119147465 2 0 0
5317 656 8 0.145 7.818494388122756 6.24862760911813 33.39503604643319 2 0 1
494 67 4 -0.6830000000000001 1.2456616772482363 9.000804486961604 38.19164682724249 0 1 -2
783 105 2 0.418 3.3255649777501093 0.7105182777633379 36.008197396964164 1 0 2
1239 167 2 0.418 0.8479785029330764 0.8576871099197534 34.06072280718326 -2 2 2
1235 167 4 -0.6830000000000001 0.013878185122640274 0.6188101424187222 34.46081994822158 -2 2 2
1535 207 6 0.06 1.5323961220022344 3.3919994852948254 36.31034029267386 2 -1 -1
4687 586 8 0.145 7.506117382725559 3.641467503186715 38.51449464843035 -2 2 -2
3826 490 6 0.06 5.038657681834573 3.4122105069799433 36.68544222148528 2 0 -2
4653 582 5 0.418 3.1450568405401347 2.045880873705045 33.82788425852135 1 -1 -1
3831 490 7 0.06 5.82037987231468 1.4138298282688126 35.50000780813869 2 0 -2
3827 490 6 0.06 5.515567666734596 4.522244727834808 35.339506292439815 2 0 -2
686 92 1 0.04 -0.4878854635658948 7.2899257025429405 34.45345673744638 2 -1 -1
612 83 5 0.418 6.858221012465572 7.078110128820282 37.640686973572755 1 1 0
567 77 2 0.418 2.4022121906332945 4.876288840741704 32.72556202528474 -1 0 1
682 92 3 0.145 0.15301347580692526 8.182633207056442 34.46046005404703 2 -1 -1
3828 490 9 -0.18 6.17292623078252 2.4179476803547484 35.245132201653455 2 0 -2
611 83 10 -0.6830000000000001 6.955444135302646 7.679199760192203 36.89566569026575 1 1 0
610 83 8 0.145 5.592752759167337 7.769324727695947 36.438069569848736 1 1 0
2697 361 9 -0.18 -0.2981149645031751 2.7301625761561783 28.606146825425267 3 -1 1
684 92 1 0.04 -0.41106294106047814 9.046558307572669 34.730167126551486 2 -1 -1
1532 207 10 -0.6830000000000001 2.0954701871615313 5.30123223980975 35.514544069363495 2 -1 -1
613 83 6 0.06 5.207210207474614 6.736604996991401 36.68747377611333 1 1 0
4688 586 10 -0.6830000000000001 6.85030285945805 4.887857732562898 38.53424884406372 -2 2 -2
3825 490 5 0.418 3.397510620064975 4.159418102680618 35.06100733260472 2 0 -2
1531 207 8 0.145 1.111423408304554 4.319348777335083 35.9651377727315 2 -1 -1
5325 656 7 0.06 8.686799869651969 4.856269984119676 34.6439707912112 2 0 1
687 92 2 0.418 0.8690928728794893 8.329865366299938 36.20322454449338 2 -1 -1