LAMMPS data file via write_data, version 29 Aug 2024, timestep = 1000000, units = real

6258 atoms
10 atom types
5529 bonds
8 bond types
8871 angles
10 angle types
9095 dihedrals
7 dihedral types

-1.246188208579948 40.18730820856415 xlo xhi
-0.8869859292470856 39.62409592923842 ylo yhi
-0.774955993061841 39.21317599305751 zlo zhi

Masses

1 1.008
2 1.008
3 12.011
4 15.999
5 1.008
6 1.008
7 1.008
8 12.011
9 12.011
10 15.999

Pair Coeffs # lj/cut/coul/long

1 0.03 2.5
2 0 0.5
3 0.066 3.5
4 0.17 3.12
5 0 0.4
6 0.03 2.5
7 0.03 2.5
8 0.066 3.5
9 0.066 3.5
10 0.17 3.12

Bond Coeffs # harmonic

1 340 1.09
2 320 1.41
3 553 0.96
4 268 1.529
5 340 1.09
6 340 1.09
7 320 1.41
8 553 0.96

Angle Coeffs # harmonic

1 55 108.5
2 33 107.8
3 35 109.5
4 55 108.5
5 37.5 110.7
6 33 107.8
7 37.5 110.7
8 33 107.8
9 50 109.5
10 35 109.5

Dihedral Coeffs # opls

1 0 0 0.45 0
2 -0.356 -0.174 0.492 0
3 0 0 0 0
4 0 0 0 0
5 0 0 0.318 0
6 0 0 0.45 0
7 0 0 0.468 0

Atoms # full

2148 273 5 0.418 5.638960147723938 0.03500116825108246 6.441259275543009 -1 0 0
1730 226 7 0.06 0.20697859055445544 1.3146675311810787 1.9109532621353988 0 0 0
2092 267 8 0.145 8.159688382194956 -0.6878274738388772 3.392647640028083 2 1 1
441 60 9 -0.18 4.984146126308604 2.7215599932972503 2.146223202951179 1 0 1
3404 412 7 0.06 7.268576973126084 6.197300822801289 2.639279724831965 0 -1 0
438 60 5 0.418 7.123526018036342 2.0316064197093557 1.15436586765553 1 0 1
5763 674 7 0.06 1.6136102049076864 6.8116972894082615 12.47467699042551 2 1 1
2149 273 6 0.06 5.294182430878039 -0.3755548846015202 3.9544416932136173 -1 0 0
4499 534 6 0.06 8.737504669686514 4.225951820316186 4.116337177255303 -1 1 0
444 60 7 0.06 4.792387191344172 2.0095289861667727 2.994890821940718 1 0 1
3402 412 9 -0.18 6.720046696951065 7.050954013154442 2.924479954248595 0 -1 0
3405 412 7 0.06 6.002292146439794 6.56462391070564 3.574799588213562 0 -1 0
2156 274 10 -0.6830000000000001 1.0046755563992105 8.67080953006828 4.589409416371265 1 0 2
6155 718 6 0.06 3.354093029320217 3.421858652513931 0.39354039494220205 2 0 1
5479 643 6 0.06 2.9600176570359356 2.1172675277497603 5.583571290519954 1 2 1
5483 643 7 0.06 1.8774101414165734 2.7558941563220416 3.4179203111013514 1 2 1
1725 226 5 0.418 -0.27875921685612237 1.3603518349585348 4.586513493384389 0 0 0
1724 226 10 -0.6830000000000001 -1.1859450331587527 1.517813337556667 4.431796983726548 0 0 0
5347 628 7 0.06 6.290095080049626 5.994379535419035 -0.43293971592353936 0 2 2
62 9 6 0.06 -1.1397772859493926 3.449435741322012 8.881885950755615 0 0 -1
5476 643 8 0.145 1.9127449212766248 2.4868641075855584 5.561150433521927 1 2 1
937 127 3 0.145 2.273143567805257 6.943469447218668 1.9469836624197234 0 -2 0
1136 151 1 0.04 2.262165818248581 -0.3728489999446315 1.0201692676775014 0 1 0
1106 148 10 -0.6830000000000001 2.326959083963782 9.045630461517353 8.78831154755227 1 1 3
4693 556 8 0.145 8.31269275936117 2.0846187749406857 11.24260329748036 0 1 1
5478 643 5 0.418 1.701298107947621 0.562711561061813 6.03196353602187 1 2 1
5477 643 10 -0.6830000000000001 1.3178543014223765 1.179261350075644 5.423679707919995 1 2 1
5481 643 9 -0.18 1.6348086179691848 3.282333899826682 4.322021239763264 1 2 1
5298 623 5 0.418 -0.12931042554838856 -0.5628029171399511 -0.03755119114022509 0 0 0
5480 643 6 0.06 1.6558749342888035 2.939304778143513 6.499434679585347 1 2 1
5484 643 7 0.06 2.2316862702383724 4.184439726778343 4.204063167495378 1 2 1
5482 643 7 0.06 0.5711785009167709 3.5379777838520647 4.30426312763186 1 2 1
3401 412 6 0.06 5.463144911807368 7.3215967171281005 1.1500974256715484 0 -1 0
443 60 7 0.06 4.326244077407948 3.5604119821716678 2.189334796396548 1 0 1
1481 197 7 0.06 2.6088354724087317 0.07706419143984766 8.53104653683569 0 1 -1
439 60 6 0.06 6.6552341140939655 4.095152898965805 1.7499224733918535 1 0 1
942 127 2 0.418 0.7890643677122653 7.528295257364864 3.097768761373134 0 -2 0
3397 412 8 0.145 6.212513510444474 7.898655168764977 1.6905349966998133 0 -1 0
4762 563 7 0.06 5.709389940893524 -0.35283140934501234 1.4597850245963402 0 0 1
442 60 7 0.06 4.894503624840306 2.209514475350461 1.1924397834103901 1 0 1
436 60 8 0.145 6.443538021836374 3.251331629063108 2.377354399343572 1 0 1
3991 478 8 0.145 -0.8845858517066314 6.953453184390949 -0.603450514112341 1 2 -1
2270 286 7 0.06 9.056460970239172 7.92479790263245 11.142427059900402 -1 -1 -1
4756 563 8 0.145 7.087825077732109 -0.14491657688667325 -0.40502492273916746 0 0 1
2150 273 6 0.06 4.104671769853837 -0.057142652925164295 5.189516665556105 -1 0 0
2095 267 6 0.06 7.297029584293741 -0.2621978894569321 2.90890809975316 2 1 1
1134 151 1 0.04 2.1458227082901637 -0.7833699403180503 2.741848961438297 0 1 0
940 127 1 0.04 2.5752991553531452 7.977456077401895 1.861302239547273 0 -2 0
941 127 1 0.04 2.9359851258982097 6.534733955455163 2.746916102642934 0 -2 0
4761 563 9 -0.18 5.908940148272254 -0.7750045022044281 0.45671575690891175 0 0 1
4757 563 10 -0.6830000000000001 6.782754734904664 1.2298412134121808 -0.6918461442809221 0 0 1
3498 423 5 0.418 6.274809814181735 3.6990915283074335 10.426803347380183 0 1 1
939 127 1 0.04 2.339713516437368 6.332773890174615 1.1277822007368805 0 -2 0
4496 534 10 -0.6830000000000001 7.93127254925542 3.833192462986312 5.9953294601472225 -1 1 0
3403 412 7 0.06 7.444195230734232 7.579920780046475 3.535098408518354 0 -1 0
4497 534 5 0.418 7.337397799324602 4.366695669900378 6.583839371062148 -1 1 0
6151 718 8 0.145 3.227407217258339 3.4119218597807928 -0.6985150729487516 2 0 1
1477 197 6 0.06 3.9822091549848295 2.575339416045278 9.647367515689025 0 1 -1
4495 534 8 0.145 8.564336585527535 4.76127970602304 5.091120153507503 -1 1 0
2096 267 6 0.06 7.982239403803227 -0.47362250005720335 4.517452066119682 2 1 1
938 127 4 -0.6830000000000001 0.9675416969122912 6.924870571026358 2.342304391768726 0 -2 0
3398 412 10 -0.6830000000000001 5.516625707407665 8.98598521528049 2.2097433136567703 0 -1 0
4759 563 6 0.06 8.047744339691086 -0.4302104463768234 0.05594044948113486 0 0 1
344 47 1 0.04 4.57991555599879 6.047668119068077 5.790715658360008 1 -1 0
2230 282 6 0.06 6.193074777330334 8.034076728921185 7.391566620100127 -1 1 1
3994 478 6 0.06 -0.5595647382061865 5.90430731724999 -0.7387418213770299 1 2 -1
1480 197 7 0.06 2.378878657304464 0.5683680904898414 10.190344213867064 0 1 -1
2231 282 6 0.06 6.187300733937908 9.113339814276081 8.81899264642196 -1 1 1
3993 478 5 0.418 -0.29758692056295055 7.030934899700611 1.1732074152579328 1 2 -1
1727 226 6 0.06 -1.2098846548863265 0.010676827987305515 3.11636090945512 0 0 0
4696 556 6 0.06 8.815102495363787 2.8212284118598845 10.55380410041051 0 1 1
5702 668 10 -0.6830000000000001 -0.7517694475179225 -0.44099628309426325 10.415520045082554 2 -1 0
1474 197 8 0.145 3.8396989071972962 1.6339479600635505 9.10930683878509 0 1 -1
5760 674 9 -0.18 0.6477930590011725 6.7663612849877515 11.889277146293079 2 1 1
3503 423 7 0.06 3.764959673758435 6.669731114800488 11.629987439570971 0 1 1
3643 439 6 0.06 -0.15682937967121924 5.779441825033933 8.664858614214857 -1 0 -1
1478 197 6 0.06 4.72779462594751 1.0486546506442433 9.437064717558892 0 1 -1
5704 668 6 0.06 0.1045324101140197 -0.5646954083136664 8.507658406074938 2 -1 0
5761 674 7 0.06 0.8606373501691387 7.1580751507438976 10.917548706949766 2 1 1
2227 282 8 0.145 6.106736512280806 9.047509589933744 7.741738630742644 -1 1 1
3499 423 6 0.06 5.758566008077655 5.308770248530935 11.957568048194823 0 1 1
264 36 1 0.04 8.588625462173747 1.4986981090608968 8.489470353201002 -1 0 0
263 36 4 -0.6830000000000001 6.8379919859866405 1.796415215755205 7.361336317048435 -1 0 0
3500 423 6 0.06 4.401999482342988 4.190468979096796 11.516948682583786 0 1 1
4498 534 6 0.06 7.816237805702357 5.565878772851056 4.858179361492041 -1 1 0
267 36 2 0.418 7.291203962572483 2.4682303420050724 6.784074339678331 -1 0 0
3644 439 6 0.06 0.16214152650452252 6.59685641638253 7.197485309466795 -1 0 -1
437 60 10 -0.6830000000000001 7.418730044641071 2.312934259850648 2.026780994237382 1 0 1
1475 197 10 -0.6830000000000001 4.073644317286684 1.827111479124893 7.710655797287696 0 1 -1
1476 197 5 0.418 4.997298218733619 1.729799900050546 7.591052209699935 0 1 -1
3400 412 6 0.06 6.988903766218419 8.195061097569184 0.9134176341317704 0 -1 0
265 36 1 0.04 7.35336799113845 0.34472907472905856 8.893244851788046 -1 0 0
343 47 1 0.04 4.366231457319231 6.646063731330285 7.561895449731278 1 -1 0
3502 423 7 0.06 4.622142659772271 6.780040141845145 10.183842253744992 0 1 1
440 60 6 0.06 6.559081447839986 3.5006403162226416 3.4530005637974766 1 0 1
262 36 3 0.145 7.772004675541318 0.9643516347999388 8.024596658183281 -1 0 0
266 36 1 0.04 8.141179101807992 0.3071878179980765 7.268533064848002 -1 0 0
4695 556 5 0.418 6.601484382348317 1.363122543429618 11.146672224987748 0 1 1
3640 439 8 0.145 -0.4969207624487729 6.588111127585991 8.03139069585216 -1 0 -1
342 47 1 0.04 3.9837438614284233 4.957051268601267 7.064311885613569 1 -1 0
341 47 4 -0.6830000000000001 5.96973759646138 5.361878992982164 7.28016649383731 1 -1 0
1352 181 10 -0.6830000000000001 6.5264404461561005 -0.49853637405890466 11.571113912195388 0 0 -2
340 47 3 0.145 4.6701505682067905 5.807238966760057 6.941587253376828 1 -1 0
1357 181 7 0.06 4.013958521993995 -0.3630183111965134 12.162117120021346 0 0 -2
3496 423 8 0.145 5.006863203387883 4.958175926824833 11.154267675050797 0 1 1
3501 423 9 -0.18 4.032302204949855 6.075682338291622 10.75416180807918 0 1 1
345 47 2 0.418 5.958760636968705 5.103213436515727 8.232354031136612 1 -1 0
3642 439 5 0.418 0.5000899012342694 8.212386521682829 8.656578603551413 -1 0 -1
1482 197 7 0.06 1.6657902256905697 1.5467682442958997 8.878733885148812 0 1 -1
1479 197 9 -0.18 2.520969152850398 0.9312780677810253 9.183265159565462 0 1 -1
3504 423 7 0.06 3.172943165819053 5.821545887374774 10.20588386938805 0 1 1
4274 509 6 0.06 5.959831889676625 8.919566329192369 11.942868256367422 2 1 1
6159 718 7 0.06 1.2393510975821642 2.90780938866487 -0.2356923061170676 2 0 1
4694 556 10 -0.6830000000000001 6.967961456680319 2.240131242616376 10.982460838862234 0 1 1
3641 439 10 -0.6830000000000001 -0.4369575637747747 7.88908258128839 8.611886703665993 -1 0 -1
3497 423 10 -0.6830000000000001 5.7500376892812355 4.473873279066053 10.057290287592593 0 1 1
2228 282 10 -0.6830000000000001 4.773811027019169 9.216194188953743 7.592321852845647 -1 1 1
4697 556 6 0.06 8.69743017125012 1.1403532682072184 10.976687471807216 0 1 1
2146 273 8 0.145 4.864149570029672 -0.7275699717391709 4.917796863335229 -1 0 0
4764 563 7 0.06 5.032084553698537 -0.6140917646297821 -0.20958414813810167 0 0 1
5762 674 7 0.06 0.2429107093868903 5.711622991858086 11.855249759196319 2 1 1
1728 226 9 -0.18 -0.7836252078028099 1.874748702755055 2.030178761214543 0 0 0
2684 332 7 0.06 1.3430206248440588 -0.16162393333431113 12.201216031148704 1 1 1
1107 148 5 0.418 3.2887969600947375 9.121573356522063 8.423827202794284 1 1 3
3992 478 10 -0.6830000000000001 -1.1776045525016388 7.269248247572454 0.7657100562691488 1 2 -1
1731 226 7 0.06 -0.667138773231227 2.9474101967058837 2.248829062974805 0 0 0
2147 273 10 -0.6830000000000001 5.849209343164441 -0.7025586451225713 5.9295266760711 -1 0 0
2159 274 6 0.06 -0.03486365423749427 9.10150836892216 6.259812800137955 1 0 2
2094 267 5 0.418 9.066109410472652 0.7954374834212303 2.429068898334375 2 1 1
5297 623 10 -0.6830000000000001 -0.57087585037016 -0.07901514448636815 -0.7353289508590006 0 0 0
2229 282 5 0.418 4.487433735376047 9.211187064921205 6.658864071961499 -1 1 1
3511 424 7 0.06 6.12050242521083 7.132085546257482 14.317240350189403 1 1 0
6138 716 9 -0.18 3.226470981883022 3.7787658642912776 14.2641598216318 1 0 1
6135 716 5 0.418 1.4475299138382036 6.299772239911617 14.989444983512014 1 0 1
6141 716 7 0.06 2.9796541989907803 3.0090626963045666 13.565970510040955 1 0 1
6134 716 10 -0.6830000000000001 2.1614346368886475 5.668843072987009 15.229174255868404 1 0 1
6140 716 7 0.06 3.9820531169490048 4.446183833546744 13.929266905329325 1 0 1
6133 716 8 0.145 1.8636255340653967 4.434210451235698 14.594384653321569 1 0 1
6136 716 6 0.06 1.2340413384322142 4.658390144723482 13.71249195780139 1 0 1
6137 716 6 0.06 1.2636577470932555 3.838292540992504 15.263449311217101 1 0 1
6139 716 7 0.06 3.5909343253703128 3.1684534023914477 15.129864852975949 1 0 1
2810 346 7 0.06 7.269938629536814 3.7505843627820887 15.218077670799321 1 0 1
2808 346 9 -0.18 6.886705510908463 3.7825036865008013 16.178503038267856 1 0 1
2803 346 8 0.145 7.163356658913548 2.4410089018845103 16.917718275196236 1 0 1
2805 346 5 0.418 8.999795341926038 2.7753163452523526 17.65447477154779 1 0 1
3768 453 5 0.418 2.302274383032254 5.632170669225007 17.238650633085676 1 1 1
3270 397 7 0.06 8.100106655011228 -0.7224798406613048 21.702351339160906 1 1 -1
3510 424 9 -0.18 5.5640363026752215 7.239177001003078 15.21250238755046 1 1 0
2804 346 10 -0.6830000000000001 8.571936390414303 2.09531818865179 17.069259409784287 1 0 1
2806 346 6 0.06 6.847546087759218 2.445832479325666 17.98154530615414 1 0 1
3512 424 7 0.06 5.179990406794523 6.251176904509608 15.246074711545017 1 1 0
501 67 1 0.04 2.863983968148701 8.749881467918955 23.896921658853355 -1 1 0
3769 453 6 0.06 1.3972274951472263 3.6822038654538396 17.651164421628497 1 1 1
3767 453 10 -0.6830000000000001 2.172291347384687 5.533169246236268 18.20750158013578 1 1 1
981 132 7 0.06 3.9337926531428717 1.697820951388846 17.849692417621192 1 1 -2
5749 673 6 0.06 5.501964241296748 4.730212385069019 19.817307777786088 0 1 0
3505 424 8 0.145 4.4607108737168195 8.17335905186841 15.10781423518442 1 1 0
3770 453 6 0.06 0.2865760742793617 4.900977795135872 17.894271955527543 1 1 1
3975 476 5 0.418 -0.5978010212557615 0.23516351832122817 25.19000170447979 2 2 1
3766 453 8 0.145 1.2122415848769035 4.506300412175141 18.350169284148198 1 1 1
2681 332 6 0.06 1.2321001611180402 1.5598724418561405 14.172757713150165 1 1 1
2682 332 9 -0.18 0.9757335912070526 -0.4157507869868204 13.254797166957378 1 1 1
1675 220 7 0.06 2.2205771621050756 8.32812222355445 18.74284229919597 0 1 0
2678 332 10 -0.6830000000000001 0.5850525802006024 0.30280895477579106 15.52875356170388 1 1 1
979 132 7 0.06 4.716833385502665 0.0036892971258692953 17.585431163540346 1 1 -2
3974 476 10 -0.6830000000000001 0.21349883056050056 0.10163533966055571 25.624668027201103 2 2 1
503 67 1 0.04 3.577746009699678 9.001846506389818 22.31918221618604 -1 1 0
3508 424 6 0.06 3.9086333470207126 7.834128414921857 14.160841319622277 1 1 0
2807 346 6 0.06 6.815003624626881 1.5724849879613538 16.47527573414422 1 0 1
976 132 6 0.06 2.3783277184189653 -0.2703845409065233 18.06517116298971 1 1 -2
502 67 1 0.04 4.105110220907147 7.700494788275584 23.343913948094503 -1 1 0
5757 674 5 0.418 -1.0002689805714844 7.640798838068633 14.428580208683584 2 1 1
2680 332 6 0.06 2.4598402400254606 0.39135879940443297 14.693995457821954 1 1 1
2677 332 8 0.145 1.4188291068334355 0.5262803657929365 14.408783263110646 1 1 1
1354 181 6 0.06 6.00711724880749 -0.42309102814768546 13.603191819694697 0 0 -2
978 132 9 -0.18 4.2857245374225785 0.7679879608770233 18.277292007327624 1 1 -2
4823 570 6 0.06 -1.0200398993975466 7.520047468665586 17.651928321498012 1 0 0
2343 294 7 0.06 6.942283685194116 5.21074287582265 25.47720279369905 0 2 -2
5755 674 8 0.145 -0.44047869746142043 7.582300147721467 12.60077968215137 2 1 1
4636 549 7 0.06 -0.8398410597688806 0.9167434942317274 18.9692657536285 0 0 0
5695 667 6 0.06 0.09933564269069528 6.618772393940943 24.720993781943083 1 -1 0
3513 424 7 0.06 6.0694868791247 7.417611076620016 16.096811083313113 1 1 0
973 132 8 0.145 3.079431316339531 0.06240060655470525 18.88873071686442 1 1 -2
4700 556 7 0.06 8.591871501710193 3.417780903481492 12.893803179586676 0 1 1
2483 310 6 0.06 8.008230605935811 8.273311788018844 24.880211285816962 0 0 0
5756 674 10 -0.6830000000000001 -0.4940574202087442 7.07920295912492 13.882612071701798 2 1 1
3509 424 6 0.06 3.6572042220673717 7.985995960470715 15.806419838096314 1 1 0
5489 644 6 0.06 8.715626007514885 4.652216623067958 20.02562538680865 0 3 0
5758 674 6 0.06 -0.1066715438168071 8.567574254942452 12.825057080989659 2 1 1
2811 346 7 0.06 7.288392230791727 4.678541558571851 16.73176990777365 1 0 1
3973 476 8 0.145 1.1832900877921317 1.0269457646262163 25.111049047498252 2 2 1
3263 397 10 -0.6830000000000001 7.340932946629701 2.3528855729589533 22.011286423419023 1 1 -1
3981 476 7 0.06 1.7812458913883376 3.041073368638917 25.663958618549273 2 2 1
2679 332 5 0.418 0.5702927335479138 -0.6270270417648978 15.656090012273076 1 1 1
1669 220 8 0.145 0.37806146756593884 8.919379005964563 19.97413634367175 0 1 0
2353 296 8 0.145 3.9112513604772623 1.6688139905274517 23.022657583081273 0 0 0
1221 163 5 0.418 -0.007843962812968064 -0.7578623229575312 21.422639141973196 -1 0 -1
1672 220 6 0.06 0.24676371395265062 7.8899508152135525 20.227677846255656 0 1 0
2338 294 6 0.06 8.482434114615547 5.396823820544595 23.490283101745753 0 2 -2
2354 296 10 -0.6830000000000001 4.537684189574994 1.3023010763117915 21.797682089081892 0 0 0
5698 667 7 0.06 -0.7264193853682863 4.128895273893695 23.166853983828272 1 -1 0
5032 593 7 0.06 8.908140783105788 -0.23858629957275346 14.175019784322867 1 0 1
2998 367 7 0.06 8.334977143032729 8.85965060178461 21.164133273262152 1 0 0
2340 294 9 -0.18 7.568631786746755 4.348339448517579 25.21357089495633 0 2 -2
2809 346 7 0.06 5.816275073519469 4.012220389948042 16.194281187885217 1 0 1
5754 673 7 0.06 5.989154939684337 6.655146121978468 21.31603790127995 0 1 0
2355 296 5 0.418 3.9571695423539435 1.4101016979251946 20.995132403581074 0 0 0
4637 549 7 0.06 -1.0608180806850849 1.5511596333791235 17.28278093559574 0 0 0
499 67 3 0.145 3.239374965516374 8.207112938135467 23.00870869229536 -1 1 0
1674 220 9 -0.18 1.5116702167012663 9.132262249915241 18.95733861208068 0 1 0
3267 397 9 -0.18 7.772006537463632 0.09496081532182332 22.210558112487625 1 1 -1
4698 556 9 -0.18 8.698020997730605 2.3596705834347578 12.687265177438768 0 1 1
3772 453 7 0.06 0.638949833366133 4.895290255701535 20.512885916722414 1 1 1
5748 673 5 0.418 3.2676551361688757 5.406891260841727 19.903387522090608 0 1 0
5747 673 10 -0.6830000000000001 3.7993147237513876 5.745269696277071 20.653622243335732 0 1 0
2337 294 5 0.418 8.471774413066484 3.036703064597908 23.301623065588068 0 2 -2
3264 397 5 0.418 6.468413196073006 1.9415391728981346 22.15462133366038 1 1 -1
5750 673 6 0.06 4.688375034177667 3.9312266689606057 21.07185264633065 0 1 0
3977 476 6 0.06 2.067506559240847 0.4866411600246918 25.260312406674057 2 2 1
2361 296 7 0.06 4.84928540356755 0.20379772915959005 24.308956775209307 0 0 0
2360 296 7 0.06 5.736054178357496 1.5520283014381842 24.373428930403463 0 0 0
3976 476 6 0.06 1.0533484698454156 1.319202330369801 24.02700057938223 2 2 1
2342 294 7 0.06 6.944750269285905 3.617822351561557 24.738629608720192 0 2 -2
4699 556 7 0.06 8.03168060670943 1.811532348647757 13.412028084090677 0 1 1
5752 673 7 0.06 6.83298036691723 5.228339220599137 21.410932475225724 0 1 0
5751 673 9 -0.18 5.896282256847182 5.636199592943506 21.608709596991904 0 1 0
5693 667 10 -0.6830000000000001 1.478223931785907 5.39230312332483 24.08124692563754 1 -1 0
2685 332 7 0.06 -0.1254386690633782 -0.5288962308388556 13.094710144851694 1 1 1
5746 673 8 0.145 4.955477208410304 4.946167438937403 20.712415192318915 0 1 0
5753 673 7 0.06 5.613763041420504 5.554976055348201 22.662767937949972 0 1 0
3269 397 7 0.06 8.135789940043948 0.10133337749812432 23.270868129066745 1 1 -1
5694 667 5 0.418 1.7201270966087145 6.069553678437227 23.478552291228887 1 -1 0
980 132 7 0.06 5.076587842575216 0.9418777640787046 18.989471884656908 1 1 -2
3773 453 7 0.06 1.6716802533612438 3.456456768857561 20.25861537773584 1 1 1
2358 296 9 -0.18 4.731381878750397 1.2188253702729712 24.31188555118107 0 0 0
3771 453 9 -0.18 0.8878512778767025 4.0522714188567415 19.8204266705446 1 1 1
974 132 10 -0.6830000000000001 2.4296613480179516 1.0485650983417185 19.729750440528104 1 1 -2
975 132 5 0.418 1.6363846015196604 0.6491572620955641 20.115906256803868 1 1 -2
3266 397 6 0.06 7.81048368106177 1.2762101894546767 20.439291062081438 1 1 -1
2335 294 8 0.145 8.691909214627705 4.625497700193688 24.251574959505515 0 2 -2
2359 296 7 0.06 4.239114726255741 1.4350373832691665 25.304354677349426 0 0 0
5697 667 9 -0.18 -0.7169308395677088 5.214487180384827 23.271993458271254 1 -1 0
2357 296 6 0.06 3.7165254449053524 2.73592518212355 23.0846340098104 0 0 0
3268 397 7 0.06 6.711609118262387 -0.02482673411735381 22.40438377426268 1 1 -1
5692 667 8 0.145 0.16600930175753104 5.611292280137002 24.48438974622121 1 -1 0
504 67 2 0.418 2.5467223256584077 7.019428689725389 21.588224853934943 -1 1 0
3262 397 8 0.145 8.123884012765934 1.3474648497404922 21.468783185561744 1 1 -1
5699 667 7 0.06 -0.30689363658980895 5.5584342412453145 22.340141617808168 1 -1 0
3774 453 7 0.06 -0.024660103673417977 3.4833330812456182 19.685021011049002 1 1 1
500 67 4 -0.6830000000000001 2.2059336379740375 7.443272160214812 22.374288625091214 -1 1 0
2356 296 6 0.06 2.9180755896684314 1.2068465329788567 22.97340972311098 0 0 0
5696 667 6 0.06 -0.2632908048018342 5.179590930221088 25.337096045103806 1 -1 0
1220 163 10 -0.6830000000000001 0.8243085512782966 -0.47034313470413774 21.843056973204522 -1 0 -1
1932 249 5 0.418 2.6848358786050444 5.939582340211274 25.267181631042327 1 -1 -1
765 103 5 0.418 2.4122439637591224 1.0757355413927736 31.791524146353392 1 0 2
2895 356 5 0.418 4.841863451534033 1.3573029225651094 31.154387930233188 0 1 -1
764 103 10 -0.6830000000000001 2.9857916324344513 1.413631560514638 31.132933504698396 1 0 2
2894 356 10 -0.6830000000000001 5.765623608663346 1.345481285030341 30.804260229311037 0 1 -1
1934 249 6 0.06 2.372980191080642 4.988954720525604 27.239669970221687 1 -1 -1
1937 249 7 0.06 4.583175167109799 4.880149712717066 28.83807058248512 1 -1 -1
376 52 3 0.145 8.548125452839612 4.998025297713697 28.288362429984527 -2 0 -1
1930 249 8 0.145 3.3615574613546366 5.142189143915937 26.941489800286583 1 -1 -1
2587 322 8 0.145 8.866683445294893 8.593286291153808 30.298549738690692 0 2 0
1935 249 9 -0.18 4.275646236977587 5.6392373710161685 28.09428880046303 1 -1 -1
1938 249 7 0.06 3.7333342761653485 6.464467774656091 28.569710157866105 1 -1 -1
770 103 7 0.06 2.7590540034355033 4.0596650024772645 31.08882427183123 1 0 2
1931 249 10 -0.6830000000000001 3.3994576746148866 6.0829052222487565 25.897882879487877 1 -1 -1
1936 249 7 0.06 5.176881723216716 5.962985449967023 27.683538941898313 1 -1 -1
763 103 8 0.145 2.2850316565055486 2.241298090203909 30.177847648127553 1 0 2
768 103 9 -0.18 1.9021774624178573 3.545528790655622 30.886769840933976 1 0 2
3980 476 7 0.06 0.04456721407815567 2.7027905149621714 25.959267324649904 2 2 1
767 103 6 0.06 2.984075474369189 2.5033597489030037 29.342573128260604 1 0 2
5334 627 5 0.418 6.621721121157961 3.091098596793158 30.81473946647288 2 1 -1
5333 627 10 -0.6830000000000001 6.851520219254754 4.003831564030274 30.87903691320134 2 1 -1
381 52 2 0.418 7.169368159105073 5.232899384410822 29.69464382315295 -2 0 -1
2315 291 7 0.06 8.092889654762214 5.507166712060229 34.566673113095575 0 1 -1
1975 254 8 0.145 2.6328908612656132 8.345917686514138 31.843734713891617 1 1 0
5338 627 7 0.06 6.560347172843904 6.459730895350719 32.26361123268637 2 1 -1
766 103 6 0.06 1.4119648954284996 1.6701207123181732 29.72747369688477 1 0 2
1981 254 7 0.06 2.1785407684847353 6.619442247106196 33.0231948685618 1 1 0
1233 164 2 0.418 3.6525332789891385 7.76191860883119 26.555606485526372 0 0 0
1982 254 7 0.06 0.6907300467569424 7.693684731480044 32.66513694949897 1 1 0
377 52 4 -0.6830000000000001 7.537947779451677 5.826855149846282 28.9864241188217 -2 0 -1
776 104 1 0.04 1.875677803462572 5.152421934231204 36.4444386168653 0 0 -1
2591 322 6 0.06 7.863069410100543 8.955180097812203 30.065788893806683 0 2 0
2479 310 8 0.145 7.917594300752187 8.570860374425697 25.933553080037345 0 0 0
2896 356 6 0.06 5.485474346868832 0.43369632574474615 28.99915837068256 0 1 -1
1979 254 6 0.06 2.7156198824113953 7.8548830340222064 30.888797616538334 1 1 0
5342 628 10 -0.6830000000000001 5.1431647179802855 6.610138709215047 37.22914532099159 0 2 1
3979 476 7 0.06 1.269291631580308 1.8946508796681494 27.040763507964304 2 2 1
2217 280 7 0.06 -0.2572999026318732 0.8871858848565646 33.51875417590337 -1 0 -1
771 103 7 0.06 1.2923911113110935 3.3884666837116084 31.791097354941872 1 0 2
5300 623 6 0.06 0.8855722833132966 0.15310031190289908 37.92849044019533 0 0 -1
3666 441 7 0.06 0.5472786566106369 7.634697866964659 30.269039744002068 -1 0 0
5337 627 9 -0.18 6.187061990358777 5.490625340619149 32.64625265261685 2 1 -1
2794 345 8 0.145 9.005196225065605 1.2810533069551213 36.24637309898942 0 -1 -1
1980 254 9 -0.18 1.7836959421642296 7.629787146775831 32.90553727083288 1 1 0
769 103 7 0.06 1.3220823824212595 4.233753997684665 30.257504901005284 1 0 2
775 104 1 0.04 2.074443646663789 6.484544861482297 35.42959692960092 0 0 -1
814 110 1 0.04 2.5300055438850393 2.4423851810976793 34.1488806911328 1 -2 -1
3995 478 6 0.06 0.0025835053459493107 7.566814039469662 38.99879169241201 1 2 -2
1978 254 6 0.06 3.618498596618757 8.34558079355312 32.24967306662772 1 1 0
1229 164 4 -0.6830000000000001 3.3779127909714104 8.57760888339072 27.027347854160432 0 0 0
815 110 1 0.04 2.008101454067107 3.1887644706969454 35.621443684149924 1 -2 -1
2893 356 8 0.145 6.052517210551369 0.33291043840024503 29.862825920312538 0 1 -1
5346 628 9 -0.18 6.93619316631573 5.939393565866665 38.688661210980726 0 2 1
2215 280 7 0.06 0.9486632792110408 0.38943710434561307 32.33647141478784 -1 0 -1
5340 627 7 0.06 5.211811913485519 5.361960370342401 32.17448538963086 2 1 -1
4715 558 6 0.06 1.8533123977513664 9.13629803672816 35.842917681039495 1 -1 0
2900 356 7 0.06 7.532701892782342 1.3781710099394076 29.10859127524676 0 1 -1
2898 356 9 -0.18 7.443638740104193 0.38921932551244054 29.463981417491638 0 1 -1
6154 718 6 0.06 3.1586025593911566 4.4234823158560905 39.02451266297143 2 0 0
2214 280 9 -0.18 0.39106390820241077 0.07549318832334262 33.20768936042174 -1 0 -1
2216 280 7 0.06 1.1430101870076856 -0.07600103569780015 33.97780441910936 -1 0 -1
5335 627 6 0.06 8.153794237600996 4.522048932112115 32.54962606971766 2 1 -1
3978 476 9 -0.18 1.0539605102537002 2.259440297251182 25.991663166320883 2 2 1
3301 401 6 0.06 -0.9699053180285508 2.3168474108137493 29.498692185107707 -1 1 0
1231 164 1 0.04 1.3839543655246556 7.912416335405231 26.92224952705528 0 0 0
5301 623 9 -0.18 -0.8339930145670515 -0.11871173272376001 36.883220104368206 0 0 -1
5296 623 8 0.145 0.05489925877444701 -0.44057772619685415 38.0629107161766 0 0 -1
4005 479 9 -0.18 5.39062322701799 9.118133934412462 34.076255398639674 2 3 1
4001 479 10 -0.6830000000000001 6.55158563209307 8.72213850957871 36.092721600444875 2 3 1
773 104 4 -0.6830000000000001 2.424779176697352 6.798668551132692 37.53894176353937 0 0 -1
5349 628 7 0.06 7.654206065716307 5.11530214218042 38.666729433982695 0 2 1
4794 567 5 0.418 1.0287032867965564 -0.5798832557034528 27.166143373554878 0 0 -1
2313 291 9 -0.18 9.026897291930103 5.877301696396497 34.97155601894143 0 1 -1
2899 356 7 0.06 8.210584866037136 0.2197379051124071 30.275681573706247 0 1 -1
2468 308 7 0.06 0.04137081866302039 5.646056363068607 33.90830926761707 1 1 -1
2482 310 6 0.06 7.362884961737176 7.7583541921057275 26.477352501937748 0 0 0
1781 232 6 0.06 4.988383918580248 -0.7702342367142101 37.05072398311721 0 1 1
6153 718 5 0.418 4.722660437002516 2.128355497562115 39.06187709181938 2 0 0
1228 164 3 0.145 1.9854284625307344 8.837842228245833 27.040738330084917 0 0 0
5332 627 8 0.145 7.052033482517345 4.269928072977697 32.274082773392365 2 1 -1
2469 308 7 0.06 0.28775953964300083 3.977001974228415 34.42593620098316 1 1 -1
5339 627 7 0.06 5.939064493316067 5.668622989008036 33.693053252913884 2 1 -1
379 52 1 0.04 8.077741918849581 3.9787840152229235 28.248841416196974 -2 0 -1
2800 345 7 0.06 6.848434691650342 1.635607474854888 36.312644058715065 0 -1 -1
6156 718 9 -0.18 1.9813161326555049 2.674020865608793 38.92976161249398 2 0 0
5304 623 7 0.06 -0.45846924237139297 -0.5040797008190826 35.922849068657 0 0 -1
5348 628 7 0.06 7.535157504586179 6.875125867465843 38.42804627015114 0 2 1
4758 563 5 0.418 7.397777595788501 1.424511411698032 38.536483414503394 0 0 0
2897 356 6 0.06 5.781185793441228 -0.6504815381836042 30.2417984620805 0 1 -1
4713 558 5 0.418 1.8711224468072332 8.996278448355444 38.08549034793583 1 -1 0
4793 567 10 -0.6830000000000001 1.6300692927524714 -0.8616716827618743 27.90108895422217 0 0 -1
2795 345 10 -0.6830000000000001 9.057562281805373 1.5597585773186844 37.59350474396081 0 -1 -1
4006 479 7 0.06 5.520933168111025 8.033108499014919 33.90138879525111 2 3 1
3665 441 7 0.06 -0.41172375823326746 6.155158240731915 30.19062917537215 -1 0 0
813 110 1 0.04 3.4645253041876902 3.64711928940606 34.782005225312744 1 -2 -1
2314 291 7 0.06 8.647500287513767 6.735187748414498 35.556448693782926 0 1 -1
1983 254 7 0.06 1.9836802262777637 8.151472999034594 33.80636788578029 1 1 0
772 104 3 0.145 1.706202614783451 6.235377623121702 36.40470311690993 0 0 -1
774 104 1 0.04 0.6251315355217772 6.3397350372568635 36.514264232713884 0 0 -1
5344 628 6 0.06 6.743029247831236 5.617675972088293 36.58695573832169 0 2 1
5336 627 6 0.06 6.720421223815129 3.4056097057605843 32.84832224481522 2 1 -1
3664 441 7 0.06 0.1276783645119126 7.080435170643378 28.78875950524195 -1 0 0
2801 345 7 0.06 7.386882973341805 1.4569524435989498 34.70701534102791 0 -1 -1
2901 356 7 0.06 7.664530872276373 -0.1800890903782122 28.584834600309115 0 1 -1
5343 628 5 0.418 5.529032151006259 7.421008690810373 36.851878749104785 0 2 1
5341 628 8 0.145 6.104487189535142 5.647159216098984 37.43635887359089 0 2 1
6152 718 10 -0.6830000000000001 4.306082287412758 2.8363873933300416 38.49605838296934 2 0 0
2797 345 6 0.06 9.03795944109168 0.20812631280103333 36.29090707229946 0 -1 -1