LAMMPS data file via write_data, version 29 Aug 2024, timestep = 1000000, units = real

5490 atoms
10 atom types
4761 bonds
8 bond types
7335 angles
10 angle types
6279 dihedrals
7 dihedral types

-0.46102605363317295 39.40214605363998 xlo xhi
-0.11930347225163374 38.856413472246516 ylo yhi
-0.017183403311840095 38.45540340329093 zlo zhi

Masses

1 1.008
2 1.008
3 12.011
4 15.999
5 1.008
6 1.008
7 1.008
8 12.011
9 12.011
10 15.999

Pair Coeffs # lj/cut/coul/long

1 0.03 2.5
2 0 0.5
3 0.066 3.5
4 0.17 3.12
5 0 0.4
6 0.03 2.5
7 0.03 2.5
8 0.066 3.5
9 0.066 3.5
10 0.17 3.12

Bond Coeffs # harmonic

1 340 1.09
2 320 1.41
3 553 0.96
4 268 1.529
5 340 1.09
6 340 1.09
7 320 1.41
8 553 0.96

Angle Coeffs # harmonic

1 55 108.5
2 33 107.8
3 35 109.5
4 55 108.5
5 37.5 110.7
6 33 107.8
7 37.5 110.7
8 33 107.8
9 50 109.5
10 35 109.5

Dihedral Coeffs # opls

1 0 0 0.45 0
2 -0.356 -0.174 0.492 0
3 0 0 0 0
4 0 0 0 0
5 0 0 0.318 0
6 0 0 0.45 0
7 0 0 0.468 0

Atoms # full

2325 307 9 -0.18 0.4908280958154443 3.912410392388405 3.6869003813164283 1 0 1
2320 307 8 0.145 0.9391376140103718 2.535085207483801 3.013413560808202 1 0 1
3865 514 3 0.145 3.884178697224046 7.1309379301095355 2.648755255662275 0 1 0
5321 705 1 0.04 8.775955943021284 0.13635100660960475 12.004668724492834 1 2 -1
2321 307 10 -0.6830000000000001 2.219155775798729 2.762484127279235 2.59222883747365 1 0 1
3986 531 4 -0.6830000000000001 4.090295375150536 1.7792611093357729 5.043513321519452 1 1 0
2915 389 4 -0.6830000000000001 9.339147141092427 3.165919231493205 5.418578510130076 1 0 -1
2324 307 6 0.06 0.4548556271224302 2.3110834070079194 2.070975976704524 1 0 1
3867 514 1 0.04 4.251175257300252 6.198243307467959 2.961181714971871 0 1 0
4791 635 5 0.418 5.984495198309081 2.1050488898953605 4.867006749593268 0 2 1
2328 307 7 0.06 0.665977770851371 4.651908410480701 2.880688221976814 1 0 1
2322 307 5 0.418 2.8197483222594704 2.414203325035811 3.2495243183130924 1 0 1
2323 307 6 0.06 0.8279159611112317 1.7572861051266937 3.7762936350775695 1 0 1
2919 389 2 0.418 8.451746133750495 2.6575134701630905 5.400587197596223 1 0 -1
2651 352 7 0.06 8.962536944476245 7.763973014884325 3.077096783398639 1 0 -1
4790 635 10 -0.6830000000000001 6.889618811436933 2.0006622079335887 5.250577475645081 0 2 1
840 110 5 0.418 2.5744467045066886 3.75177971549939 1.265105686059931 1 2 -1
839 110 10 -0.6830000000000001 2.8616635869100118 4.452664895291552 0.6621114103056565 1 2 -1
3870 514 2 0.418 3.6587194457328103 6.372367436503918 0.8642536800958862 0 1 0
3866 514 4 -0.6830000000000001 4.020837907328963 7.182504661136738 1.2332071692631297 0 1 0
2250 298 1 0.04 6.592500052162555 4.219227800318516 1.6514643849525192 2 -1 -1
3869 514 1 0.04 2.859216515518549 7.224020855562892 3.0168974627841765 0 1 0
1007 132 10 -0.6830000000000001 1.6874148119144432 0.741352047206021 10.87866614048837 2 0 0
4359 578 7 0.06 2.2639255731001606 8.889828108704187 10.378235054520527 1 -1 -2
2251 298 1 0.04 5.227831929303214 3.1833709434529447 2.0577626697607685 2 -1 -1
3868 514 1 0.04 4.451845915207687 7.930604620592224 3.092595873608553 0 1 0
27 4 9 -0.18 1.2657429033536878 0.392977046532316 6.368519364802721 0 0 1
2649 352 9 -0.18 9.201399672959745 6.971322445987331 2.3583847566881055 1 0 -1
3835 510 6 0.06 2.115514883440346 9.186555742203454 12.551327017833279 1 1 1
2650 352 7 0.06 9.270940783625543 6.060532929455716 3.0409913632168712 1 0 -1
2853 379 7 0.06 0.20521166480849573 5.810775616615989 10.580347781705013 1 0 0
2645 352 10 -0.6830000000000001 8.102042195394247 7.801322964815455 0.2840057054579652 1 0 -1
2248 298 3 0.145 6.034518151561808 3.3393601233172014 1.3747746021940925 2 -1 -1
4968 660 5 0.418 5.3805529525718745 8.44947438381394 0.9787210777505259 1 -1 0
2252 298 1 0.04 6.679599119059705 2.4726348605225437 1.4383022102989336 2 -1 -1
2249 298 4 -0.6830000000000001 5.402202605893989 3.490998781216875 0.06510043159504156 2 -1 -1
1009 132 6 0.06 1.150961970218412 2.7407896819134305 10.698662085425951 2 0 0
29 4 7 0.06 0.2912152149620064 -0.10517373997985448 6.470787723699934 0 0 1
2646 352 5 0.418 7.267836547802103 8.265936224252457 0.3281837687923474 1 0 -1
233 28 7 0.06 9.435974668886217 3.92161314082609 12.51515244977004 1 0 -2
898 117 6 0.06 4.336152810605929 0.45994122184444397 1.4148693195241606 1 0 1
2648 352 6 0.06 7.239718104903367 6.418102649273067 1.5007568422305324 1 0 -1
895 117 8 0.145 3.744770841416 0.46046298035852395 0.4551808275576963 1 0 1
309 39 1 0.04 8.986857530610088 0.9071910225066295 0.8138741933361613 -1 1 0
2917 389 1 0.04 7.971807150120059 4.61825322000105 5.101204231903007 1 0 -1
1006 132 8 0.145 1.537985125483124 1.8654549907177977 10.025996321300882 2 0 0
2507 333 1 0.04 1.893274086184935 4.93592392487267 12.631569636602745 0 0 0
2647 352 6 0.06 8.481361177821421 5.865411416335326 0.5099274995074162 1 0 -1
2326 307 7 0.06 1.1668503213088661 4.27818239960294 4.441685095798584 1 0 1
3990 531 2 0.418 3.8216099904223624 1.055256361315489 5.635380921324289 1 1 0
3988 531 1 0.04 4.3457086428639204 3.8609169518565825 5.365572157573111 1 1 0
4793 635 6 0.06 7.951495642179157 0.7551261053847667 6.402104018863565 0 2 1
2914 389 3 0.145 8.855843886790918 4.511958046923528 5.730399701222023 1 0 -1
4091 545 10 -0.6830000000000001 7.4213825831478415 7.899292147456112 7.875467668021559 1 0 1
4332 575 9 -0.18 -0.40041475414466055 8.847573768646836 1.1766808459224583 2 -2 1
4358 578 7 0.06 1.877412119315549 7.747575297238582 9.007649803394822 1 -1 -2
4098 545 7 0.06 5.464470341401486 8.302613361942928 6.337623177833011 1 0 1
2067 275 2 0.418 8.582210626694282 4.223981030103105 9.11576665324078 0 0 0
4789 635 8 0.145 7.071675657081895 0.672504426806641 5.75333099374988 0 2 1
141 17 7 0.06 5.656518260496989 5.666843449968104 11.054732790497805 -1 -2 2
2644 352 8 0.145 8.221935549395798 6.68550078470214 1.1478594000733575 1 0 -1
838 110 8 0.145 1.7210714705298846 4.967952894155726 0.04357347016936865 1 2 -1
841 110 6 0.06 1.2224539707165774 5.532966122476862 0.8424341665222318 1 2 -1
819 107 2 0.418 3.3197038246194364 -0.031510247425783344 11.48680100537235 -2 1 1
4094 545 6 0.06 8.568449686360363 8.99092648753651 6.531919565014653 1 0 1
3480 462 2 0.418 6.27088074875357 4.141015514790676 8.42144284805822 1 1 0
4240 563 7 0.06 0.19669291629911567 3.2943077749724687 7.502597306486093 0 1 -1
23 4 10 -0.6830000000000001 3.6491483198454207 0.02889735132576518 6.971722901778665 0 0 1
911 119 4 -0.6830000000000001 5.689584225014359 5.640333127715735 7.541710828873068 1 -1 0
2503 333 3 0.145 2.4771743462535913 5.895244320965463 12.502785195101268 0 0 0
3476 462 4 -0.6830000000000001 6.974709862534241 3.4739631152389165 8.683809212701899 1 1 0
4090 545 8 0.145 7.753387999455445 8.2809315407939 6.526811004871316 1 0 1
28 4 7 0.06 1.2067003938028342 1.4685136885245735 6.665889658828974 0 0 1
139 17 7 0.06 6.939581465599355 6.50552782198568 11.878921854327926 -1 -2 2
896 117 10 -0.6830000000000001 2.536505729669203 -0.05962266462609025 0.7689222711012862 1 0 1
2508 333 2 0.418 4.402641185145399 6.326647004743934 12.685809939289111 0 0 0
3475 462 3 0.145 6.46048293690098 2.5698809807932905 9.714908628991848 1 1 0
915 119 2 0.418 6.110534757535234 6.518782767035299 7.447801539214743 1 -1 0
1012 132 7 0.06 3.430550661811652 2.849507470051292 10.383247730023307 2 0 0
136 17 6 0.06 6.475286700789057 8.722164415245768 10.697817285224787 -1 -2 2
134 17 10 -0.6830000000000001 4.88001321591845 7.970907626090966 11.733925198117406 -1 -2 2
4797 635 7 0.06 8.455600307221996 0.0032534418717647673 4.168883870561896 0 2 1
899 117 6 0.06 3.6188143840608653 1.48451986513891 0.13227602374491368 1 0 1
2506 333 1 0.04 2.359644891235686 6.390588164212841 11.544509329761691 0 0 0
4095 545 9 -0.18 6.426157324939666 8.897300339581916 6.1418083812380155 1 0 1
3985 531 3 0.145 3.9928758870728025 2.973708458751299 5.8316200380022 1 1 0
913 119 1 0.04 3.5894835954995488 5.411815485601699 7.263145106701143 1 -1 0
3477 462 1 0.04 5.948234400991037 1.763950051099989 9.30764247095968 1 1 0
5245 696 7 0.06 8.585130638623376 9.123617330067745 11.014988486939185 1 0 -1
140 17 7 0.06 7.177929649602803 6.215025206196201 10.20868460206468 -1 -2 2
910 119 3 0.145 4.325352559215654 5.764047856436212 8.020288502441636 1 -1 0
3479 462 1 0.04 5.884074467406872 3.1467871457903294 10.441936718994572 1 1 0
138 17 9 -0.18 6.421286421261965 6.4869168145917975 10.972368052819013 -1 -2 2
3989 531 1 0.04 2.957079408509246 3.1611845328141284 6.029924655161649 1 1 0
1011 132 9 -0.18 2.850903200291094 2.3630652983327844 9.53930292587869 2 0 0
4967 660 10 -0.6830000000000001 5.897932006463474 9.196706625125588 0.6700213426538106 1 -1 0
133 17 8 0.145 5.743977138469344 7.87079637717547 10.675340106600169 -1 -2 2
4356 578 9 -0.18 2.2134487760769472 8.758216645503943 9.272456438808936 1 -1 -2
1014 132 7 0.06 3.4410155943612124 1.6069031894506591 9.03283215250424 2 0 0
912 119 1 0.04 4.046010559170761 6.866711654602504 8.2210622870522 1 -1 0
914 119 1 0.04 4.086324201558446 5.253616075865341 8.972172007225584 1 -1 0
1013 132 7 0.06 2.693093079348932 3.1905166213479084 8.818576068980528 2 0 0
1010 132 6 0.06 0.8758798718772074 1.6536844138632143 9.091823724248137 2 0 0
2253 298 2 0.418 4.592138899233301 4.002964266498031 0.2117988752254391 2 -1 -1
4092 545 5 0.418 8.254843601685558 7.558387756294587 8.243973288069311 1 0 1
3478 462 1 0.04 7.255633133480744 2.131113072952548 10.211109577524311 1 1 0
3987 531 1 0.04 4.5392332787725 2.7728471295360246 6.757757963567181 1 1 0
137 17 6 0.06 5.241544661966495 7.834384177874191 9.686568916070923 -1 -2 2
1008 132 5 0.418 0.8615610233264519 0.6396412951882691 11.41928425974045 2 0 0
4093 545 6 0.06 8.041241912005258 7.453692441049356 5.847700150926984 1 0 1
2063 275 4 -0.6830000000000001 9.448201391285538 4.386778363346601 9.614893379367622 0 0 0
4096 545 7 0.06 6.493797471623314 9.1168048307235 5.1543041221659 1 0 1
2918 389 1 0.04 8.62824010008374 4.633236144421427 6.798860289156179 1 0 -1
4792 635 6 0.06 6.195346215926788 0.3398709870192268 6.135336901231052 0 2 1
4357 578 7 0.06 3.2272693725568753 9.056017884140257 9.03636487775849 1 -1 -2
30 4 7 0.06 1.4351020119535025 0.4059185998440381 5.278988113385276 0 0 1
135 17 5 0.418 5.310706401661317 8.37666805742662 12.487114822604035 -1 -2 2
4335 575 7 0.06 0.7074459908385984 8.62692590324372 1.023143849997733 2 -2 1
4795 635 7 0.06 6.94508823465251 -0.07014120306026378 3.627794349600792 0 2 1
4032 537 2 0.418 1.3083056814499439 3.339788808321473 17.84567775125934 0 3 0
4631 614 10 -0.6830000000000001 3.413086475163499 3.2932135859210208 14.354774960230271 2 1 0
4636 614 7 0.06 4.69837679157077 2.979646108153112 16.50488608488149 2 1 0
4632 614 5 0.418 3.486677991138183 4.0532857751454205 13.737961021155396 2 1 0
4630 614 8 0.145 4.777908139951215 2.9855006833649016 14.476437471662043 2 1 0
3784 504 8 0.145 2.39481903594042 5.665820136446345 16.547556663067468 0 0 2
3786 504 5 0.418 2.883291212345155 3.8702504822619503 16.046750846860334 0 0 2
3785 504 10 -0.6830000000000001 2.4410093551052796 4.233223163328365 16.834407132907938 0 0 2
3787 504 6 0.06 1.5181426885402896 6.24213588555673 16.983626134345574 0 0 2
3788 504 6 0.06 2.1804473219297917 5.833675807326285 15.516282050166264 0 0 2
3790 504 7 0.06 4.518911697747618 5.666001080096169 16.378934629421973 0 0 2
4637 614 7 0.06 5.988143101943955 1.898721124398648 15.972106028079015 2 1 0
2097 279 9 -0.18 5.941922129452607 9.576545297767533 16.775096969162153 -2 0 0
3832 510 8 0.145 1.7453706697449713 9.504216441710124 13.507964234704948 1 1 1
4638 614 7 0.06 4.17289700367669 1.5532422946363251 16.02996627267233 2 1 0
4635 614 9 -0.18 4.982028221005649 2.283932777566831 15.773431825150835 2 1 0
270 33 9 -0.18 8.85359895480729 3.157639396163496 18.298940622675065 0 -1 -1
5421 718 1 0.04 8.639178997803567 6.809029619485473 14.480086832426883 1 2 0
5419 718 3 0.145 7.588440875276767 6.864774899154293 14.73987856391515 1 2 0
5420 718 4 -0.6830000000000001 6.926814625770042 7.816296133525169 13.979397971452487 1 2 0
5422 718 1 0.04 7.597152226293787 7.136447426294054 15.768252786831667 1 2 0
1752 232 7 0.06 0.6435482737059535 8.192903284513276 19.144335880586855 2 1 -2
2035 271 6 0.06 0.016144450405441158 7.177056227855366 15.320627928791147 1 0 0
4829 640 7 0.06 1.1694835157079841 7.129376279929621 23.16539432588121 0 1 1
5423 718 1 0.04 7.000186108083756 5.9889547401130185 14.620671577783211 1 2 0
3758 499 1 0.04 1.1478700497770522 1.3041090127082933 21.414569282730923 0 -1 1
2100 279 7 0.06 6.769739117852652 9.170548413913258 17.417635079253248 -2 0 0
3836 510 6 0.06 1.0430593416032596 8.815656442511466 13.936706820623895 1 1 1
4028 537 4 -0.6830000000000001 0.7082567977601162 2.8186204943384783 18.406230752935198 0 3 0
5424 718 2 0.418 7.449004372120054 8.644480944885428 13.997294130034525 1 2 0
265 33 8 0.145 7.99293886411979 4.15312207911596 17.482129624430435 0 -1 -1
3837 510 9 -0.18 3.0752556923139758 9.515403395194642 14.351125679783628 1 1 1
269 33 6 0.06 6.955583250374407 3.866240556058616 17.62552825925095 0 -1 -1
4634 614 6 0.06 5.11591396385002 2.2537157800506566 13.728256487939259 2 1 0
271 33 7 0.06 8.643645092275216 3.294783057234344 19.36615243180925 0 -1 -1
4433 588 7 0.06 0.9325643351823889 2.527598019937488 13.0569950234821 1 -1 0
4141 551 1 0.04 4.491464755635777 3.2513913338330513 19.195934089797287 -2 2 0
268 33 6 0.06 8.17526140030947 4.215919792100274 16.390669165569598 0 -1 -1
4614 611 7 0.06 6.715228507364677 8.271466668413412 21.85502076717108 1 0 0
4030 537 1 0.04 -0.11813616782580533 1.9864385334068602 16.690456015215187 0 3 0
234 28 7 0.06 8.433054656611398 4.2486171814993146 13.959778078231581 1 0 -2
266 33 10 -0.6830000000000001 8.252004358818354 5.386801897551451 18.055426323305 0 -1 -1
2616 348 1 0.04 4.612193098948894 0.10525278657399159 23.141213390855533 2 2 0
4768 632 7 0.06 2.8924181216659623 4.700735810022597 24.876615083930226 1 1 0
3152 419 7 0.06 8.944416592444709 8.665058801049263 17.306029131125097 2 0 1
4431 588 9 -0.18 0.11461100716718764 2.456530042815717 13.718463125986274 1 -1 0
1749 232 9 -0.18 0.5430286153897308 9.301308507950793 18.864504602421718 2 1 -2
3792 504 7 0.06 3.9547292946814094 7.291619290972174 16.598166870806168 0 0 2
3789 504 9 -0.18 3.7358284080841813 6.209235790685854 16.904663152559106 0 0 2
3791 504 7 0.06 3.9258367998212007 6.237455463338226 18.007270856744697 0 0 2
3840 510 7 0.06 3.3501914617844752 8.526092704998343 14.60093278993682 1 1 1
4434 588 7 0.06 0.31272921326894887 1.6546501213227653 14.435619309743927 1 -1 0
1414 187 3 0.145 5.277459087339147 3.8168903522130657 22.996117930668603 0 1 0
4827 640 9 -0.18 2.00037498723133 6.814646588403258 22.49188389664399 0 1 1
2505 333 1 0.04 2.187501818992407 6.634353906700577 13.234028417137212 0 0 0
273 33 7 0.06 8.755343641537701 2.132764749449018 17.877106609302874 0 -1 -1
4823 640 10 -0.6830000000000001 0.4928693374238178 6.106432289101491 20.823141523372396 0 1 1
3754 499 3 0.145 0.5185273776140719 2.123837254450188 21.749592548060967 0 -1 1
231 28 9 -0.18 9.057777323017692 3.4544632215390236 13.431416676886249 1 0 -2
4432 588 7 0.06 -0.1345545743881873 3.428137175188679 14.169155694606168 1 -1 0
232 28 7 0.06 8.410872119445457 2.603156774141467 13.199096660548847 1 0 -2
1750 232 7 0.06 -0.16167409128020466 9.320434651947787 18.052170053965995 2 1 -2
4608 611 5 0.418 7.688322311182377 5.659954199522678 19.730128141454326 1 0 0
3757 499 1 0.04 -0.39108616868005425 1.6359496814070822 22.09851665713082 0 -1 1
3364 446 6 0.06 8.144810034560996 0.9693514160826895 20.58474398044538 2 1 -1
4140 551 1 0.04 3.141082194056715 2.6345551075488953 20.189004404976036 -2 2 0
267 33 5 0.418 9.086992464872312 5.601672169768632 17.598715945697634 0 -1 -1
4609 611 6 0.06 9.239672266545345 6.599472098897925 21.0362222050932 1 0 0
1364 180 1 0.04 6.029727966694503 0.9417762459045502 24.979948320690912 -3 0 1
3755 499 4 -0.6830000000000001 0.11555741870521141 3.1071628671547806 20.856402225365503 0 -1 1
4027 537 3 0.145 0.2784346721535934 1.7260362295826654 17.646736862311656 0 3 0
4612 611 7 0.06 7.211131299799796 8.119950218909299 20.228138696907944 1 0 0
2098 279 7 0.06 5.742540332572039 8.757524302587505 16.05788200355561 -2 0 0
4031 537 1 0.04 0.9566676507876164 0.921345645496741 17.34631958138334 0 3 0
9 2 1 0.04 9.399088103052776 1.2038866032808098 24.303969629367774 0 0 -1
4613 611 7 0.06 8.25933258848739 8.80129891679697 21.442564008551578 1 0 0
4142 551 1 0.04 3.4740573569200928 1.7601462160538104 18.593121873693324 -2 2 0
4138 551 3 0.145 3.9028309925072264 2.349431080471932 19.45870471848949 -2 2 0
4610 611 6 0.06 8.33912574008334 6.380996683172787 22.49870142702949 1 0 0
1748 232 6 0.06 2.2737278698367653 9.103349962702053 17.879230104555536 2 1 -2
1415 187 4 -0.6830000000000001 5.827800532891034 3.8033284206927442 21.7183507650437 0 1 0
4770 632 7 0.06 2.6606708299875383 3.1081041876591406 25.325083188446712 1 1 0
1419 187 2 0.418 6.4837877532844805 4.580060221677319 21.62975017056864 0 1 0
4825 640 6 0.06 2.423568208510308 5.325723632335523 20.981154286864005 0 1 1
4822 640 8 0.145 1.5849764351716407 5.6574972731544655 21.57929696311839 0 1 1
1416 187 1 0.04 5.016885136380987 4.879708596000248 23.260067565761346 0 1 0
4611 611 9 -0.18 7.5771312767602215 7.973989719322562 21.239886365795122 1 0 0
4143 551 2 0.418 5.269650762843049 2.1860852540411537 20.81611337412146 -2 2 0
4139 551 4 -0.6830000000000001 4.832933424278089 1.5416493982808266 20.208663811624184 -2 2 0
3887 517 1 0.04 6.563418095596431 7.539003364605482 24.85178797164143 2 -1 0
4606 611 8 0.145 8.220475515871804 6.5874139228388495 21.454106131367627 1 0 0
4828 640 7 0.06 2.941009710940887 6.524136941887485 23.029088082924112 0 1 1
4830 640 7 0.06 2.199403173260604 7.730903516513823 21.863352132772743 0 1 1
1418 187 1 0.04 6.165170513469871 3.364044589901218 23.56499391535414 0 1 0
1417 187 1 0.04 4.333101398590529 3.1294076678564235 22.95615565203161 0 1 0
4826 640 6 0.06 1.3025880230709388 4.85550836300738 22.310475954909744 0 1 1
4824 640 5 0.418 -0.010588337043060503 5.34022463393105 20.546176816179077 0 1 1
3759 499 2 0.418 0.40240482094046937 2.7947895303444654 19.994934973134445 0 -1 1
4607 611 10 -0.6830000000000001 7.517112704179927 5.6249736384924525 20.721322992659058 1 0 0
3363 446 5 0.418 6.220806356967568 0.16757095383011322 19.327515796848836 2 1 -1
4633 614 6 0.06 5.365076987655744 3.8336223442882296 14.302328233044873 2 1 0
1671 222 1 0.04 -0.24279659975477638 4.426005531944383 24.537876380091504 -1 2 1
3756 499 1 0.04 0.8419782437126799 2.5348477898974955 22.71687164135094 0 -1 1
818 107 1 0.04 3.820779585737813 0.19401067970114244 13.798883190860339 -2 1 1
3150 419 9 -0.18 9.491421391650993 9.222101012732962 18.10781533567989 2 0 1
1251 165 7 0.06 4.6970546929281936 -0.053556238885624344 17.24193989662884 1 -1 -1
2504 333 4 -0.6830000000000001 3.784453710855802 5.558493687170878 12.852648047172675 0 0 0
4643 615 1 0.04 4.336058961279731 0.2889147884109816 29.267072543657918 0 0 -1
606 79 7 0.06 9.479150946019159 5.181115063914809 32.93628125449093 -1 -1 0
4639 615 3 0.145 3.911953091620097 0.24849962737526826 30.244660818867565 0 0 -1
4969 660 6 0.06 4.2194783405717 9.390993380075077 37.942528004591395 1 -1 -1
3569 475 4 -0.6830000000000001 4.247844822747566 7.505648829822707 28.515384286633388 0 2 0
3568 475 3 0.145 4.578447968665596 7.190587433937663 29.84276761650485 0 2 0
3572 475 1 0.04 4.479760104748588 7.985541618170524 30.57955074164212 0 2 0
3888 517 2 0.418 5.169095140907225 7.064454639928483 27.141228329405248 2 -1 0
3570 475 1 0.04 3.9279133098078773 6.401321005063789 30.1529684303414 0 2 0
4503 596 7 0.06 7.425896084374592 6.68832640411691 28.7278934062709 1 -1 -2
2953 394 8 0.145 1.014378097371536 3.1877460736274856 30.818642919710417 1 -1 0
3571 475 1 0.04 5.637284571957757 6.971292755326445 30.040001010108956 0 2 0
97 13 8 0.145 0.8980282241787874 8.141134048165053 28.961858432136538 -1 2 1
5046 670 2 0.418 9.02622411961812 3.320062338794919 28.364249587512433 0 0 -1
3573 475 2 0.418 3.402374884167531 7.974992631032441 28.424742743349555 0 2 0
104 13 7 0.06 0.8782952724839079 6.92918295036255 27.182403856646832 -1 2 1
926 121 4 -0.6830000000000001 8.41145217344209 1.2625506275520415 36.91132982523542 1 0 -2
2956 394 6 0.06 1.6047168515310428 3.67997712075881 30.08096054161537 1 -1 0
338 43 1 0.04 6.4555224577736325 0.3213833371468299 31.92902563842973 0 0 -1
4640 615 4 -0.6830000000000001 2.5664968882102 -0.0500464246702234 30.38435950150073 0 0 -1
4495 596 8 0.145 8.311877056428964 8.11160095342623 30.09444962105797 1 -1 -2
2955 394 5 0.418 1.3217885328327308 1.5049332514860156 30.296231176938416 1 -1 0
98 13 10 -0.6830000000000001 1.9881289973534582 8.97808981461301 28.433571643716736 -1 2 1
102 13 9 -0.18 0.9471822864638031 6.7191799205418805 28.296812402663374 -1 2 1
5044 670 1 0.04 7.636198397803605 4.45328746660497 27.005207948791004 0 0 -1
4500 596 9 -0.18 8.265195572020522 6.73658988914399 29.317709693729277 1 -1 -2
4498 596 6 0.06 8.344710634941388 8.957298507916596 29.411033996027466 1 -1 -2
901 117 7 0.06 5.547069536780915 -0.0248254977468889 37.65271545921076 1 0 0
1362 180 1 0.04 4.838199258704509 0.9561475657777179 26.270075881725504 -3 0 1
103 13 7 0.06 1.8242451150688868 6.143851167956027 28.543845656846848 -1 2 1
2487 330 2 0.418 1.462392760240958 9.256746249877065 32.9597612603891 0 1 0
5041 670 3 0.145 8.627187539770267 4.196113011584613 26.673509000191352 0 0 -1
2957 394 6 0.06 1.6890349155682478 2.7704447907513194 31.568091507501737 1 -1 0
4100 546 4 -0.6830000000000001 8.396745669132583 2.358931915866614 29.7362732101639 1 0 4
4104 546 2 0.418 7.773720649812237 1.866800772212195 30.304099565733583 1 0 4
4762 632 8 0.145 3.7383842204809667 4.179530803752669 26.750315121789754 1 1 0
4767 632 9 -0.18 2.629425727636213 4.101252257660555 25.74438775477222 1 1 0
4766 632 6 0.06 3.7229362143211002 3.4596977322470805 27.52723119985129 1 1 0
4502 596 7 0.06 9.133459146522231 6.676069488248753 28.680578704619244 1 -1 -2
4501 596 7 0.06 8.198923485701693 5.888431256379087 30.167629217059368 1 -1 -2
312 39 2 0.418 9.283090073972385 -0.06549814255641173 37.699129672678254 -1 1 -1
843 110 9 -0.18 2.043620199937251 5.745429138179369 37.183165331665755 1 2 -2
2954 394 10 -0.6830000000000001 0.49219474414904596 1.9907363373270872 30.214756180045494 1 -1 0
5042 670 4 -0.6830000000000001 9.48513081996283 3.978859245986934 27.811650276981414 0 0 -1
2002 267 7 0.06 5.264893667875565 3.220045702057931 30.647426877994967 -2 1 -1
3884 517 4 -0.6830000000000001 5.571922451202778 6.612309305830266 26.365996969603355 2 -1 0
101 13 6 0.06 1.2015015614571791 7.94141038403265 30.037326900219796 -1 2 1
2857 380 6 0.06 7.425880514588792 7.49733712857176 35.25029953056198 -1 1 0
105 13 7 0.06 0.08587768676180763 6.097132164038088 28.614975044541467 -1 2 1
2980 397 6 0.06 5.004652200849101 9.331677610557003 33.41379421908138 1 4 -2
1360 180 3 0.145 5.733198378206573 0.4821607507286948 25.917183019087837 -3 0 1
2961 394 7 0.06 0.48147667034303787 4.9999547073527415 31.890040761626015 1 -1 0
846 110 7 0.06 2.2113818856532137 5.004015430287896 36.42973840143283 1 2 -2
2958 394 9 -0.18 -0.011338351125422474 4.177605447642555 31.40156790418735 1 -1 0
844 110 7 0.06 2.743274706216715 6.503577563081357 37.15416541708649 1 2 -2
1363 180 1 0.04 6.474808941989217 0.6646416299500523 26.697509716633824 -3 0 1
4641 615 1 0.04 4.094705747362071 1.187688243450441 30.780055787093247 0 0 -1
2794 372 6 0.06 0.5631320659574368 9.293485403257757 35.66933504842871 -2 -1 0
5043 670 1 0.04 8.609619818877967 3.2234957329494867 26.20281937087799 0 0 -1
3886 517 1 0.04 7.645098928555875 6.985851951153477 26.144122286611907 2 -1 0
3688 490 7 0.06 -0.30415467362526055 4.415675911839431 35.05032710741381 -1 1 0
3885 517 1 0.04 6.513129657417637 8.383007403098059 26.320023828561826 2 -1 0
2835 377 2 0.418 9.09677708413046 8.479544086555917 32.46912228909084 -2 0 -3
2833 377 1 0.04 9.437815405602295 8.97232271433835 35.19133904334448 -2 0 -3
927 121 1 0.04 6.83062364136502 2.5353070276586167 36.23901622744686 1 0 -2
100 13 6 0.06 -0.05514002347362007 8.630375249256328 28.919573784292037 -1 2 1
4763 632 10 -0.6830000000000001 4.912734139850072 4.064050641642734 26.056504089800637 1 1 0
842 110 6 0.06 1.0878998335672283 4.085897900303861 38.34567995759393 1 2 -2
4469 593 10 -0.6830000000000001 0.04965790760788025 0.34830853273098233 37.94000709168962 1 -1 -1
2003 267 7 0.06 4.339957241516593 4.5517125940288095 31.489536910941712 -2 1 -1
2831 377 4 -0.6830000000000001 8.62920449727608 8.81251029987742 33.26493342450041 -2 0 -3
2861 380 7 0.06 5.299532424644696 6.686601075562774 36.53838821989208 -1 1 0
2862 380 7 0.06 4.661038589929573 5.994922573488078 35.09916288843544 -1 1 0
2859 380 9 -0.18 5.300839317325831 6.865527420669104 35.432978491397435 -1 1 0
2860 380 7 0.06 4.78120626350249 7.803446380489324 35.28117492521475 -1 1 0
1998 267 5 0.418 7.810574448511362 2.9353591044002267 32.79641592651545 -2 1 -1
1997 267 10 -0.6830000000000001 6.909011827371478 2.8182758478047383 32.4267231330026 -2 1 -1
2858 380 6 0.06 7.058150383853986 5.815813073953006 35.04483020258897 -1 1 0
2001 267 9 -0.18 4.975713749711056 3.6815468184844593 31.57855899546912 -2 1 -1
40 6 8 0.145 1.9173513765869847 1.3330539077723023 35.60988446949166 -1 0 0
930 121 2 0.418 8.46698360516682 1.9382134317094546 37.59367756249216 1 0 -2
48 6 7 0.06 2.5396907621939433 2.6672142690910894 33.99044760320492 -1 0 0
2484 330 1 0.04 2.4745193460930492 7.391820352282729 34.097626047157185 0 1 0
47 6 7 0.06 2.84276808057848 1.0328359171758852 33.656106260160044 -1 0 0
43 6 6 0.06 1.5502673936687077 0.30146458536601567 35.771730530341536 -1 0 0
2483 330 4 -0.6830000000000001 2.175690920173974 8.744091525764812 32.54163307532214 0 1 0
44 6 6 0.06 2.9009608974545342 1.275554473660061 36.15687097905722 -1 0 0
2485 330 1 0.04 1.2731027475286398 6.852134922373914 33.02703915832874 0 1 0
929 121 1 0.04 7.117021196050444 1.0480396052778558 35.3278327256061 1 0 -2
925 121 3 0.145 7.674424820156318 1.9121416857794062 35.83117474025218 1 0 -2
2854 380 8 0.145 6.693347094459666 6.776598229421373 34.837835180229455 -1 1 0
928 121 1 0.04 8.239892992941753 2.448215640924077 35.08308882026824 1 0 -2
2856 380 5 0.418 7.2692307319660046 7.399580831724504 33.1271846819285 -1 1 0
2000 267 6 0.06 5.858067679593318 4.436605749140029 33.232623848155264 -2 1 -1
2486 330 1 0.04 2.9331251401049947 6.760951077156481 32.48092792836286 0 1 0
42 6 5 0.418 0.6070135596585473 1.7113600552557882 36.926916584370495 -1 0 0
2004 267 7 0.06 4.494086822491543 2.9880613013939037 32.2688035389449 -2 1 -1
2482 330 3 0.145 2.2212874180295477 7.372487173928303 32.989121830813154 0 1 0
45 6 9 -0.18 2.1447963571904145 1.6885049216334242 34.14454303287688 -1 0 0
41 6 10 -0.6830000000000001 0.996323899479455 2.1934556421581286 36.16559881793994 -1 0 0
5045 670 1 0.04 9.162084921309184 4.832587403352601 25.96012652770347 0 0 -1
2855 380 10 -0.6830000000000001 6.607050443521723 6.785875128196927 33.4070744036414 -1 1 0
1996 267 8 0.145 6.2607187661678605 4.099998285242345 32.31709482867732 -2 1 -1
1999 267 6 0.06 6.83323171270363 4.930140574773469 31.854840143775448 -2 1 -1
46 6 7 0.06 1.2868553326831473 1.637056609324377 33.46773569242532 -1 0 0
3883 517 3 0.145 6.638009309214415 7.40845592842234 25.899220552261287 2 -1 0
845 110 7 0.06 1.0781859839064443 6.21851899469393 36.884172515854395 1 2 -2
4769 632 7 0.06 1.6341922598865937 4.454885469897726 26.212231902008682 1 1 0
4765 632 6 0.06 3.596504999039678 5.1135490229990985 27.241660699626827 1 1 0
4499 596 6 0.06 7.472093825422594 8.437591359816423 30.753105886240384 1 -1 -2
4764 632 5 0.418 5.253967865928485 4.930837874718727 26.077072923165648 1 1 0
4470 593 5 0.418 0.9197723220291403 0.2558192997048263 38.426447751779676 1 -1 -1
3505 466 6 0.06 5.811900063590829 15.600792298526144 2.757601586808435 0 -1 2
3502 466 8 0.145 4.806917342564685 15.741107056056274 2.952945004188779 0 -1 2
3503 466 10 -0.6830000000000001 4.145300131291839 14.625451030351961 2.3971640392523006 0 -1 2
2214 293 2 0.418 2.896926482850059 13.617337190091694 1.6748441370948812 1 0 -1
3510 466 7 0.06 3.18201275803605 17.142792554562238 2.638003163796716 0 -1 2
2111 281 6 0.06 7.0491380082833075 16.89341211401129 0.9324248063000623 1 0 -1
3504 466 5 0.418 4.474063050069878 13.857214437355033 2.9437794344359456 0 -1 2
2193 291 5 0.418 6.57404296957205 19.101889195514783 4.281578210046507 0 0 -1
3508 466 7 0.06 4.26645862886852 17.055186279258386 1.3014999846031365 0 -1 2
3507 466 9 -0.18 4.250236194758613 17.043572610954442 2.433818675434969 0 -1 2
3506 466 6 0.06 4.7995730853383485 15.66116832941781 4.047475918642131 0 -1 2
3509 466 7 0.06 4.727321355099791 17.937924564211073 2.7648644255258774 0 -1 2
2108 281 10 -0.6830000000000001 6.77635448473294 18.942209917650622 0.9798705993412489 1 0 -1
2109 281 5 0.418 6.839423165795862 19.032544484892064 1.9259472096142507 1 0 -1
513 68 9 -0.18 8.464342435477132 12.03458823688773 1.3295264695899423 1 1 2
2104 280 1 0.04 8.931146769777595 16.716113270601713 6.111861023601052 0 2 -1
1133 149 4 -0.6830000000000001 5.0427678741157065 13.161876210471895 4.6947082632473895 -1 -1 0
532 70 7 0.06 7.6780216764343745 14.485714060418879 9.115261529487798 1 -1 0
630 82 2 0.418 9.323976115012156 12.58625049915349 4.596271997970512 1 -1 0
662 87 10 -0.6830000000000001 3.7949366345008837 12.584934269176477 9.628304525766973 -1 0 -1
2210 293 4 -0.6830000000000001 2.172335181141588 12.962758943429769 1.4927322588435126 1 0 -1
669 87 7 0.06 6.070412408481718 11.062829252276044 11.54597383103541 -1 0 -1
2113 281 7 0.06 9.425778784674401 18.609663186188712 0.03311059960116186 1 0 -1
510 68 5 0.418 8.561042337370171 14.57732893850323 3.4456485967306225 1 1 2
512 68 6 0.06 7.037108933876315 13.691334705605307 1.6625930847869934 1 1 2