LAMMPS data file via write_data, version 29 Aug 2024, timestep = 1000000, units = real

5067 atoms
10 atom types
4338 bonds
8 bond types
6489 angles
10 angle types
4728 dihedrals
7 dihedral types

0.007928672654916369 38.794131327332664 xlo xhi
0.3467696873002879 38.39034031269616 ylo yhi
0.4428733062196244 37.99534669377121 zlo zhi

Masses

1 1.008
2 1.008
3 12.011
4 15.999
5 1.008
6 1.008
7 1.008
8 12.011
9 12.011
10 15.999

Pair Coeffs # lj/cut/coul/long

1 0.03 2.5
2 0 0.5
3 0.066 3.5
4 0.17 3.12
5 0 0.4
6 0.03 2.5
7 0.03 2.5
8 0.066 3.5
9 0.066 3.5
10 0.17 3.12

Bond Coeffs # harmonic

1 340 1.09
2 320 1.41
3 553 0.96
4 268 1.529
5 340 1.09
6 340 1.09
7 320 1.41
8 553 0.96

Angle Coeffs # harmonic

1 55 108.5
2 33 107.8
3 35 109.5
4 55 108.5
5 37.5 110.7
6 33 107.8
7 37.5 110.7
8 33 107.8
9 50 109.5
10 35 109.5

Dihedral Coeffs # opls

1 0 0 0.45 0
2 -0.356 -0.174 0.492 0
3 0 0 0 0
4 0 0 0 0
5 0 0 0.318 0
6 0 0 0.45 0
7 0 0 0.468 0

Atoms # full

1869 246 1 0.04 2.7468356546742903 2.3560996814355404 1.0646238016134242 2 0 1
1867 246 3 0.145 3.146520607674753 2.5542972377069795 2.0478869904592436 2 0 1
1868 246 4 -0.6830000000000001 4.383833968664855 3.1203582355095603 2.0837659682230667 2 0 1
1872 246 2 0.418 4.58447785414964 3.545945283204056 2.9076015321378725 2 0 1
450 59 5 0.418 2.2873460616660264 6.76744447023205 12.742308397586058 1 -1 1
1099 145 3 0.145 3.9672218032793767 7.374089021964351 5.5568827944826245 -2 0 1
4550 643 1 0.04 6.7141899622840056 4.115274346134617 4.552671219931642 -1 -1 -2
1104 145 2 0.418 5.085231823001062 6.086369536063291 4.533828686092809 -2 0 1
569 74 4 -0.6830000000000001 6.530210376156152 8.622408834576028 3.00504656814838 -1 0 -1
4547 643 4 -0.6830000000000001 4.789114566904575 4.372699863997457 4.4408643505187095 -1 -1 -2
4546 643 3 0.145 5.902827107581203 3.689185672137103 4.9937198599853865 -1 -1 -2
1100 145 4 -0.6830000000000001 5.149394073776576 6.997580464183176 4.773969682855669 -2 0 1
573 74 2 0.418 5.995839945492583 7.958029860444462 3.457689543229111 -1 0 -1
1101 145 1 0.04 3.1038409619209957 7.140012548202427 4.892957948683203 -2 0 1
1102 145 1 0.04 3.9893880647205715 6.687096926218354 6.37834791652469 -2 0 1
3369 448 5 0.418 3.5123188591401577 3.2707916827677854 7.497555360505824 4 -1 1
851 111 1 0.04 1.013525631106072 4.457405791910259 3.6468453961882754 1 1 -1
2690 359 1 0.04 7.325383833614769 8.772571181129935 5.642311047307138 0 0 0
972 127 7 0.06 6.011409813220605 5.558211004359956 1.3016959091577682 -1 2 0
4551 643 2 0.418 4.169636354759055 4.096357668167649 5.10787368076361 -1 -1 -2
568 74 3 0.145 7.677288611819514 8.060787922159033 2.4726770567474587 -1 0 -1
570 74 1 0.04 7.428028739804884 7.552018829466301 1.4985443331679351 -1 0 -1
847 111 3 0.145 0.5913934194731246 4.633018392541098 4.660548093802572 1 1 -1
5065 729 1 0.04 3.2097891930323916 9.00790672612602 3.506704044373539 0 3 2
572 74 1 0.04 8.041234388440722 7.263609076984479 3.209714993280834 -1 0 -1
3711 503 2 0.418 4.4046247191438574 3.1129289387996923 12.156474302668753 -1 1 1
4548 643 1 0.04 6.096190673442417 4.019325589406852 6.036415150292294 -1 -1 -2
4549 643 1 0.04 5.711767199023461 2.5763681965635503 4.957744513663094 -1 -1 -2
1871 246 1 0.04 2.4325476272718785 3.274452627206076 2.4562085099768707 2 0 1
2482 330 3 0.145 6.900642570959645 6.100395669751678 9.453672345017463 2 0 0
968 127 6 0.06 4.2416583949608535 7.216492296227665 1.304692920588623 -1 2 0
4840 692 3 0.145 0.10395201560389833 8.113074104222218 7.301751420958731 2 -2 -1
1870 246 1 0.04 2.94153615218247 1.6786218987287862 2.7438836225787786 2 0 1
3868 530 3 0.145 6.987183184316351 1.0043750079063276 0.9154804663908308 1 0 1
3871 530 1 0.04 7.289858336956085 1.7559931810736957 1.6465905069707718 1 0 1
3873 530 2 0.418 5.481767140821195 2.2647564369518878 0.6683825921599112 1 0 1
2376 314 2 0.418 0.04823605991282891 6.779240247856469 0.9593902638928595 0 -1 1
4809 686 2 0.418 7.664112256172715 8.55605456079427 11.801765742008355 4 2 -1
4845 692 2 0.418 0.5698365556366539 6.962328025288621 5.753906854176837 2 -2 -1
1103 145 1 0.04 3.9656921807613 8.389742291905106 5.928455336440414 -2 0 1
3371 448 6 0.06 3.4885689927251677 1.35327029135536 5.622431965747891 4 -1 1
2784 371 9 -0.18 7.04398043970714 2.080282703466394 8.474995060960657 0 1 0
2486 330 1 0.04 7.5247880191189935 6.994603057816714 9.247746091071935 2 0 0
1655 216 7 0.06 8.635918973909611 5.059057327720327 4.900788781663082 -1 0 1
2745 366 7 0.06 4.640322575288292 9.003047114017743 11.73928732557411 3 0 0
571 74 1 0.04 8.444737654135073 8.837899820609804 2.363374374595297 -1 0 -1
5063 729 4 -0.6830000000000001 1.1563867706137592 9.055036047373695 3.339549161413126 0 3 2
967 127 6 0.06 3.483292134725849 5.587643641110163 1.0936936961792139 -1 2 0
3709 503 1 0.04 2.8241829522157205 1.725035898711582 11.510181171900287 -1 1 1
2787 371 7 0.06 7.56037642776167 3.0403805830235724 8.3729926907339 0 1 0
3373 448 7 0.06 1.1875417669354709 1.6228682179995708 6.509693160249757 4 -1 1
2786 371 7 0.06 7.735109841412588 1.3267966497144807 8.756386270603768 0 1 0
3367 448 8 0.145 3.2589721345066156 1.6201646414421789 6.615171939971993 4 -1 1
2689 359 1 0.04 6.681425611425069 8.478895308408529 7.265434914850528 0 0 0
3372 448 9 -0.18 1.9127638419310578 1.0213388964703491 6.984435904265696 4 -1 1
4805 686 4 -0.6830000000000001 8.366912625227718 8.044242267886313 12.302125569006138 4 2 -1
2785 371 7 0.06 6.678026209802186 1.9050003358485472 7.471386564976605 0 1 0
3706 503 3 0.145 2.658123782580718 2.8328947872265116 11.48500784111935 -1 1 1
4841 692 4 -0.6830000000000001 0.9879129020717694 7.677384704580414 6.298123328159107 2 -2 -1
2688 359 1 0.04 7.43958781171603 7.2818069249846475 6.244945740501122 0 0 0
3708 503 1 0.04 2.902078378754263 3.217641711697898 10.544536076487912 -1 1 1
2781 371 5 0.418 5.636282630086318 4.07929821231056 8.8299950010422 0 1 0
453 59 9 -0.18 2.9814309099282705 6.774100045967377 9.930012676712664 1 -1 1
2687 359 4 -0.6830000000000001 8.704132505857423 8.712092575213171 7.187971729573877 0 0 0
2487 330 2 0.418 5.229180532409088 6.8083042186124825 8.704813651371015 2 0 0
3707 503 4 -0.6830000000000001 3.533524344074699 3.451685108086827 12.444583316123046 -1 1 1
449 59 10 -0.6830000000000001 2.210718973092618 7.435100048338978 12.0439721951771 1 -1 1
2738 366 10 -0.6830000000000001 6.747384929284045 9.659627284344177 10.38329784452211 3 0 0
2742 366 9 -0.18 5.248631150378964 9.783222903732064 12.27344667313915 3 0 0
2686 359 3 0.145 7.53600583048492 8.304982782000952 6.56775377666178 0 0 0
2691 359 2 0.418 8.515797358793245 9.64139595037227 7.413824669733236 0 0 0
849 111 1 0.04 1.4985480646111582 4.656841194448556 5.226041710949988 1 1 -1
2782 371 6 0.06 5.349692929722235 1.262110407548788 9.719173787232648 0 1 0
452 59 6 0.06 1.6811421934433992 5.661747753731873 11.251771657704202 1 -1 1
448 59 8 0.145 1.802288277423371 6.675012995767162 10.887319543208884 1 -1 1
2485 330 1 0.04 7.443557870610904 5.211080754880671 9.308796965627888 2 0 0
2484 330 1 0.04 6.496001621526224 6.233863096725527 10.490768463330426 2 0 0
455 59 7 0.06 2.6435658706647516 6.432007478994011 8.918272915786897 1 -1 1
2780 371 10 -0.6830000000000001 4.992936778390537 3.334980463541424 9.021278848637715 0 1 0
1652 216 6 0.06 8.707265175710488 2.647280803560386 4.1533844420443895 -1 0 1
454 59 7 0.06 3.339554525333578 7.828385012164322 9.871144399027251 1 -1 1
3710 503 1 0.04 1.5380425795041788 3.011873454504353 11.657523004615456 -1 1 1
3084 410 2 0.418 2.0072182239359173 9.512255911284335 11.687261771439674 5 0 1
2483 330 4 -0.6830000000000001 5.886356852861631 6.186483582270409 8.445125426591344 2 0 0
3374 448 7 0.06 1.7522722509302957 1.1148502211808524 8.125951258673044 4 -1 1
3368 448 10 -0.6830000000000001 3.161281093616392 2.9784678926809547 6.607513649241517 4 -1 1
2779 371 8 0.145 5.895173663233578 2.2418038891916265 9.518521820069745 0 1 0
1653 216 9 -0.18 9.324613701145845 4.709854459921325 4.107776318307016 -1 0 1
456 59 7 0.06 3.7374111541114807 6.140750392705777 10.290834318862013 1 -1 1
4842 692 1 0.04 0.5615917886464862 8.924264385179555 7.823092141895584 2 -2 -1
2783 371 6 0.06 6.354326169731235 2.4019605162534874 10.565121839480579 0 1 0
451 59 6 0.06 0.9526487860860852 7.190511507698625 10.425192470650643 1 -1 1
3370 448 6 0.06 4.08247741507637 1.208105476851324 7.164097938568218 4 -1 1
1656 216 7 0.06 8.867025940507315 4.8102344885677475 3.1614669345849546 -1 0 1
4470 630 1 0.04 8.794172584596984 3.644318620772862 1.1977545067064466 0 1 3
5062 729 3 0.145 2.424878948286528 9.375105792525728 2.8145788821718907 0 3 2
5066 729 1 0.04 2.6773067460264475 8.997654851160801 1.8239094091182932 0 3 2
964 127 8 0.145 4.098490816816899 6.336389611377913 0.6475667406956642 -1 2 0
5067 729 2 0.418 1.1733074985803047 9.31063903116592 4.270572361069389 0 3 2
1648 216 8 0.145 9.608326352565253 3.2023872960053956 4.24010606050577 -1 0 1
4531 640 1 0.04 9.135521789358288 5.558368291594298 11.27033425364824 -1 1 -1
2744 366 7 0.06 5.827268771657647 9.135092146317787 12.932721901167442 3 0 0
4583 649 4 -0.6830000000000001 7.029940576472364 5.609620750192309 16.506458741252597 0 -1 1
4582 649 3 0.145 7.094582799895157 6.329095565794012 15.227124328017014 0 -1 1
343 46 3 0.145 3.4889681743104033 5.57777240663549 15.224525659418779 2 2 1
4938 708 1 0.04 7.797791195467049 2.807691307566778 14.490147763092052 4 0 2
4584 649 1 0.04 6.608876723325538 5.713001439749401 14.515466374488199 0 -1 1
4587 649 2 0.418 7.544462741373349 6.034241093511743 17.220974525416125 0 -1 1
4936 708 3 0.145 6.783312521983752 2.4697470789171705 14.65841161846854 4 0 2
500 65 4 -0.6830000000000001 8.351761818480805 6.632142409471003 18.743633823809517 0 1 -2
58 8 6 0.06 6.199709557756392 9.708264519934398 24.96417617321321 0 -1 -2
347 46 1 0.04 3.977329223183955 4.635710816631408 15.580519333624341 2 2 1
4937 708 4 -0.6830000000000001 6.152649830857309 2.0023784262799174 13.506997901957254 4 0 2
2679 357 7 0.06 9.225070081776174 1.022875306101425 16.85220770155473 1 1 -1
3681 498 2 0.418 0.40149003463615635 2.186477965351684 17.305457096590498 2 1 -2
4749 676 2 0.418 3.7067340009940386 0.858984792988767 19.239067392531247 -2 -1 -3
346 46 1 0.04 3.0099342505792706 6.024348658343337 16.094052797161996 2 2 1
1910 252 6 0.06 7.941480853936426 3.4585132837898858 19.91960908920419 1 0 2
345 46 1 0.04 4.323232420642641 6.263045615240743 14.95292973865967 2 2 1
4585 649 1 0.04 6.5157586352977 7.234058726730529 15.45134509661133 0 -1 1
4286 599 1 0.04 9.482901712958142 6.724383469850944 23.8612094040227 -1 -1 2
117 15 7 0.06 9.183236833329238 3.272389056882222 23.436751927291827 -1 0 -1
1936 256 8 0.145 4.487001507371732 9.148712675754911 16.156153101236924 1 -3 1
4939 708 1 0.04 6.102251295392568 3.3520150158313835 14.938591567653225 4 0 2
1167 154 1 0.04 0.43036846128602574 5.7701031840853805 20.0371177421853 -1 2 -1
2709 362 9 -0.18 6.77978647230381 5.517060158899689 25.046293456742305 0 1 -2
1495 196 1 0.04 1.1483093722160882 7.417222009846401 15.484845457395053 1 0 3
1940 256 6 0.06 5.096913772891251 8.30812162449346 16.632598837744844 1 -3 1
3476 464 1 0.04 2.6690620795835236 3.7270329289001816 22.49224991957653 3 0 1
3679 498 1 0.04 1.645096271454248 2.883119201770645 15.63358892841698 2 1 -2
2225 294 4 -0.6830000000000001 3.021904091359006 8.384560422337916 22.74341253288027 1 1 2
1937 256 10 -0.6830000000000001 3.127149668665739 8.791562744180368 15.983344675754832 1 -3 1
4905 702 2 0.418 2.3751812138495896 7.961037559980791 17.596215486069873 2 1 1
1939 256 6 0.06 4.872903194946545 9.32340055828268 15.130371327496137 1 -3 1
3676 498 3 0.145 1.2488474935109877 1.8722235864261345 15.6561198160813 2 1 -2
3228 429 2 0.418 0.8501646558336575 5.417861299794306 25.08466250764766 1 3 1
412 54 7 0.06 5.256468495615514 1.0079494015588613 23.28541084430532 -2 0 1
1169 154 1 0.04 1.0849925791524864 6.836994887962446 21.329077277287354 -1 2 -1
3751 510 1 0.04 4.21780739097108 5.007329638335497 18.53405923245364 1 2 -2
1908 252 5 0.418 6.733542830996162 1.8668597997918996 19.89074876251558 1 0 2
1907 252 10 -0.6830000000000001 6.171769699747706 2.6167290149614244 19.67337017111594 1 0 2
3749 510 4 -0.6830000000000001 3.4814615900467643 3.371003143620179 19.39391976065833 1 2 -2
3753 510 2 0.418 4.434016720480467 3.1528250826985476 19.475594844904464 1 2 -2
1909 252 6 0.06 6.649395665463851 4.5165586618227005 19.29567386068648 1 0 2
499 65 3 0.145 7.54367247547272 7.6782702233553115 19.24718534177661 0 1 -2
62 8 7 0.06 6.293961576715329 9.24782837557297 22.35266454743143 0 -1 -2
503 65 1 0.04 8.049918852823158 8.672562791913775 19.38452984718901 0 1 -2
504 65 2 0.418 9.24329498334922 6.679552220994115 19.13740748110642 0 1 -2
4807 686 1 0.04 9.662693013146445 8.275323115954848 13.924606478164737 4 2 -1
4539 641 2 0.418 1.843713641286358 3.079603676628144 19.02792572052376 1 -1 0
3748 510 3 0.145 3.436478995686764 4.721234438943907 19.201321569414375 1 2 -2
3750 510 1 0.04 3.446083919730302 5.33935902541853 20.0865225830427 1 2 -2
3752 510 1 0.04 2.559023290921518 4.886714139333716 18.662319569369934 1 2 -2
4901 702 4 -0.6830000000000001 2.1213506252693497 7.721676380827742 18.52473978234841 2 1 1
4535 641 4 -0.6830000000000001 1.030087131900126 2.594190873846975 18.666613178530337 1 -1 0
2677 357 7 0.06 9.160771034514223 2.201605275171901 18.100724216676905 1 1 -1
344 46 4 -0.6830000000000001 2.615804157673952 5.5320220581212265 14.10364291861811 2 2 1
2357 312 4 -0.6830000000000001 0.29807318365501856 1.1422090087441208 23.957916188894146 0 1 0
4806 686 1 0.04 8.017572455203087 8.87977347223607 14.319684795559873 4 2 -1
4940 708 1 0.04 6.835774121196665 1.811006898478562 15.473266499884046 4 0 2
2678 357 7 0.06 7.604149305563988 1.5246223795221243 17.52413680004464 1 1 -1
2228 294 1 0.04 1.5208229814677507 8.880399175137647 24.13553901252368 1 1 2
63 8 7 0.06 7.907225977623226 9.566338026685889 23.241255471986033 0 -1 -2
3475 464 1 0.04 2.9597999611676875 3.866745975979062 24.15685133133211 3 0 1
4536 641 1 0.04 0.5230104817994624 2.7096356682610283 20.7252534209892 1 -1 0
3680 498 1 0.04 1.994715138202539 1.2320079467630403 16.004749467641737 2 1 -2
4746 676 1 0.04 5.260147599744874 0.482937594846218 17.810091601932417 -2 -1 -3
2712 362 7 0.06 7.393345483096266 6.381104085330734 25.34644646080055 0 1 -2
1165 154 3 0.145 0.20394896780680005 6.436793410005734 20.845136599259988 -1 2 -1
2676 357 9 -0.18 8.63245161561046 1.31093401250224 17.78573307750525 1 1 -1
4900 702 3 0.145 2.710627938612585 8.693227899163155 19.287123007328386 2 1 1
3472 464 3 0.145 2.301874372655565 4.273217091033464 23.359851029559096 3 0 1
1914 252 7 0.06 7.237691484607606 4.9312015207138655 21.624840432828293 1 0 2
1938 256 5 0.418 2.7132488392289846 9.31660556224877 15.250111444330589 1 -3 1
2224 294 3 0.145 1.8863757688465492 9.131510473489364 23.1646949833458 1 1 2
502 65 1 0.04 7.118252421044905 7.332994421988337 20.201268651306314 0 1 -2
4941 708 2 0.418 6.112088270192733 1.0778190764550182 13.661438211569864 4 0 2
414 54 7 0.06 4.2562449176337775 1.1860582876026307 21.772393680456858 -2 0 1
1911 252 9 -0.18 6.607404130543681 4.090485022376203 21.39892690911551 1 0 2
2227 294 1 0.04 1.1251421141772262 8.851413788376131 22.478177531879798 1 1 2
2708 362 6 0.06 4.8895443032398305 5.1442190493306486 24.033855150433027 0 1 -2
4804 686 3 0.145 8.804222798271965 8.750475184814096 13.47782946439801 4 2 -1
2229 294 2 0.418 3.6019793322956892 8.06082669398302 23.492741381565043 1 1 2
1906 252 8 0.145 6.92024312606431 3.7149803388565896 20.008139441962324 1 0 2
1913 252 7 0.06 5.552123911110571 4.411062742237578 21.66204589221471 1 0 2
4586 649 1 0.04 8.107133659418833 6.583724434617153 14.895983239917273 0 -1 1
113 15 6 0.06 8.444264282807755 1.110637652207395 23.950758827614536 -1 0 -1
4902 702 1 0.04 3.7580443641651873 8.566548992705565 19.295585489489948 2 1 1
1912 252 7 0.06 6.891796124459377 3.266304196152907 22.11129841952006 1 0 2
4808 686 1 0.04 9.199296136755999 9.718187176495123 13.248638720845582 4 2 -1
2705 362 10 -0.6830000000000001 4.817779687711193 6.990757689000481 24.87054111442769 0 1 -2
501 65 1 0.04 6.6050804639863845 7.936810125708158 18.694442317920707 0 1 -2
2704 362 8 0.145 5.598380306718404 6.003090269476132 24.19299048895409 0 1 -2
2707 362 6 0.06 5.895143968238429 6.435912514210946 23.23212791639118 0 1 -2
3474 464 1 0.04 2.404251489580387 5.36282983745738 23.35723919688555 3 0 1
1497 196 2 0.418 0.7075136692211348 7.8420992450986775 13.470087150156772 1 0 3
2672 357 10 -0.6830000000000001 8.053753999363352 0.4669474167806884 19.980059176790714 1 1 -1
2710 362 7 0.06 7.379705357057143 4.842179425387718 24.512654573039296 0 1 -2
4904 702 1 0.04 2.364730284246866 8.685451515799858 20.36485375513722 2 1 1
3473 464 4 -0.6830000000000001 0.9204515936192855 3.911134276931798 23.615653165165487 3 0 1
3477 464 2 0.418 0.7806234372982783 2.953341251802786 23.429394736977958 3 0 1
3678 498 1 0.04 1.0971958288390682 1.759723130722382 14.632294297857321 2 1 -2
411 54 9 -0.18 4.577003640260742 0.4959546213864272 22.6079019701279 -2 0 1
109 15 8 0.145 9.496692065797667 1.371156734235134 23.980976010169265 -1 0 -1
348 46 2 0.418 2.6529081868193294 4.633450419335131 13.827947762631023 2 2 1
115 15 7 0.06 9.367698083422201 2.3419288985909508 21.935174893913075 -1 0 -1
3677 498 4 -0.6830000000000001 0.09429517365901803 1.8416385037587009 16.401804155960573 2 1 -2
413 54 7 0.06 3.591371219256271 0.48826752766043025 23.17671035114356 -2 0 1
1492 196 3 0.145 0.1202219546284538 7.412047922152629 15.268100932256585 1 0 3
4534 641 3 0.145 0.10636037170521827 2.677131151384974 19.692986344498273 1 -1 0
4903 702 1 0.04 2.608723332346014 9.738389260252523 18.899319484597154 2 1 1
2361 312 2 0.418 0.854519438565752 0.35843610171654916 23.733641438529357 0 1 0
5021 722 4 -0.6830000000000001 4.420576303028241 5.403248015377164 27.41364416163009 -1 1 -1
5025 722 2 0.418 5.154846598101561 5.862108235849532 27.814590910732296 -1 1 -1
5020 722 3 0.145 4.3042073277846065 4.0650290795951 27.980029487608835 -1 1 -1
5022 722 1 0.04 4.135220317346355 3.992483283145406 29.063436110405117 -1 1 -1
5023 722 1 0.04 3.409416785981081 3.6153752750828385 27.511017394697056 -1 1 -1
1382 183 4 -0.6830000000000001 6.8220509828806595 5.947311130956941 28.601493377769437 2 3 0
4572 647 1 0.04 1.9277802762901242 7.117699227055591 29.857747536269052 3 1 0
1264 167 3 0.145 8.694591100078851 3.269842693410206 29.130391590827635 0 1 0
2711 362 7 0.06 6.466534329676161 5.028475172562453 25.966156500579455 0 1 -2
1089 143 9 -0.18 1.7797677319957343 3.3303861933881924 35.935644700395734 1 2 -1
4571 647 4 -0.6830000000000001 0.8939501900177498 7.290793181546986 28.127485050851437 3 1 0
1381 183 3 0.145 7.559487993211319 7.083797782432373 28.2532398856064 2 3 0
1384 183 1 0.04 7.445053906506275 7.887733863257422 29.05455925030334 2 3 0
4570 647 3 0.145 2.0211521315479963 6.881421961843282 28.80011505418477 3 1 0
1383 183 1 0.04 7.165671124055231 7.617780580049531 27.347232462694457 2 3 0
1266 167 1 0.04 8.118113943076247 3.0869608532059125 28.24087558362337 0 1 0
4574 647 1 0.04 2.9704174571616777 7.407700800429629 28.511122852370477 3 1 0
2734 365 7 0.06 4.120172907854185 1.3770169700321793 31.148900005149653 0 0 -1
3914 537 1 0.04 1.2573981843730766 1.5426110227053684 31.184747626018247 0 1 1
833 109 6 0.06 0.3924368921772673 4.731022736894532 30.7688273821979 -1 0 1
2736 365 7 0.06 5.357911610091992 2.0408983773711253 29.949208504736678 0 0 -1
760 99 7 0.06 4.1920054978104 9.482649911741692 33.00273285431107 -1 0 0
5024 722 1 0.04 5.220638352600873 3.450450960549935 27.787702529703466 -1 1 -1
4079 565 4 -0.6830000000000001 8.679004642813972 7.8176835558935105 37.04968270561163 -1 1 -2
2733 365 9 -0.18 5.208553464437501 1.4270073235280616 30.920102451569768 0 0 -1
4573 647 1 0.04 2.1670776284399897 5.849490841553247 28.852455362936208 3 1 0
1386 183 2 0.418 7.446413762075691 5.303875293077189 28.96051323453285 2 3 0
1385 183 1 0.04 8.552243375967361 6.812429587698595 28.009838615020694 2 3 0
3996 551 1 0.04 3.4110139126619465 1.3648271897174282 26.33212835600787 1 4 -2
755 99 10 -0.6830000000000001 5.199279174024987 6.774939810208334 34.89221861670059 -1 0 0
4083 565 2 0.418 9.540368484552179 7.874246476943967 36.55847471433787 -1 1 -2
2731 365 6 0.06 5.8084871276527545 3.3666594269644046 31.813036427291404 0 0 -1
1267 167 1 0.04 9.385930516836552 2.4185803082333464 29.324518882247858 0 1 0
1268 167 1 0.04 8.031292500993128 3.448253178517193 30.003056564919053 0 1 0
1265 167 4 -0.6830000000000001 9.387791649674986 4.491890543927256 28.89275409850407 0 1 0
2375 314 1 0.04 0.5272220808880491 7.398496320330534 35.76318944683751 0 -1 0
2732 365 6 0.06 5.588614654021719 2.1902696556420107 33.06681848584631 0 0 -1
966 127 5 0.418 2.5432272962436935 7.061724174885278 37.20611017781816 -1 2 -1
3224 429 4 -0.6830000000000001 0.4607416864056063 6.082036510426535 25.67495508928481 1 3 1
4288 600 3 0.145 6.838470608320245 3.7398831043496936 34.886212797301155 0 1 -2
2728 365 8 0.145 5.9811423071130445 2.280910896764074 32.01358927095514 0 0 -1
4575 647 2 0.418 0.6974581835571985 6.711369007080397 27.351915964915968 3 1 0
2735 365 7 0.06 5.581571571579597 0.4214510346334164 30.90132024271312 0 0 -1
2372 314 4 -0.6830000000000001 0.7031789770131114 7.168324140570415 37.844363662708 0 -1 0
758 99 6 0.06 5.370434958907177 7.150883236976509 33.01373087045334 -1 0 0
4472 630 1 0.04 8.935841503608707 4.921204145643816 37.260505858758634 0 1 2
1087 143 6 0.06 1.3345760835084008 4.726018506090929 34.323670417037754 1 2 -1
3869 530 4 -0.6830000000000001 6.007289500209665 1.6097394361326267 37.63017360126738 1 0 0
1084 143 8 0.145 1.2458466638271182 3.6531611847332304 34.5564301662485 1 2 -1
3734 507 1 0.04 4.2573326111476355 0.6016335838192785 34.63487713501721 1 2 0
1090 143 7 0.06 2.858908043864448 3.6209925491338475 36.02412026044519 1 2 -1
3910 537 3 0.145 0.7319298008640934 0.8112738858485851 31.91035765501988 0 1 1
2729 365 10 -0.6830000000000001 7.280687213859303 1.8931936387627268 31.995300044585967 0 0 -1
2379 315 1 0.04 6.6312487421724065 0.9622757258876934 26.9437306505421 -2 1 1
2637 351 7 0.06 8.444288440135361 5.007076765250708 31.94418654902739 -1 0 1
4293 600 2 0.418 8.508015876103457 3.07032714704296 35.49681376500068 0 1 -2
4291 600 1 0.04 6.07267781735664 3.2461810902287613 35.41153361030745 0 1 -2
759 99 9 -0.18 4.6368659258566955 9.012895104196845 33.87707896434331 -1 0 0
762 99 7 0.06 4.054613413010242 9.389064849202263 34.719076568477554 -1 0 0
4289 600 4 -0.6830000000000001 7.963413484423087 2.966536523675359 34.65660293548577 0 1 -2
761 99 7 0.06 5.660896433123988 9.341909624955596 34.028674150250495 -1 0 0
3538 475 3 0.145 9.360521516550145 9.38282030311993 32.84325305671828 3 1 -3
3540 475 1 0.04 9.104870910457642 8.561279690925247 33.596095298669766 3 1 -3
835 109 7 0.06 0.262277654778852 6.388078704214753 32.781092183045 -1 0 1
4292 600 1 0.04 7.053656155732823 4.736256457600134 35.32664617112502 0 1 -2
1091 143 7 0.06 1.680142675819269 2.285330255370174 36.19201322986672 1 2 -1
2730 365 5 0.418 7.676230876336215 2.1848888666479365 32.846070964086486 0 0 -1
1088 143 6 0.06 1.8371242086340012 3.045757819403206 33.802835016212995 1 2 -1
970 127 7 0.06 6.168388340185371 6.730706539573494 37.658532776189524 -1 2 -1
4337 608 4 -0.6830000000000001 0.8288167414570077 3.273809490360438 27.296587028399824 0 0 0
4290 600 1 0.04 6.450472715401002 3.982022479336503 33.870831360966854 0 1 -2
756 99 5 0.418 4.4667426930468865 6.757836261671095 35.5617968795134 -1 0 0
1092 143 7 0.06 1.2568313829772526 3.9512574496298796 36.712929757861765 1 2 -1
965 127 10 -0.6830000000000001 3.4848433627226343 6.898384936459398 37.021591088778244 -1 2 -1
757 99 6 0.06 3.676746967202715 6.948191667148394 33.475947815019204 -1 0 0
2706 362 5 0.418 4.491313786582958 6.606165637684101 25.682938159914222 0 1 -2
1964 259 6 0.06 9.24571069712312 0.8141463966709193 35.950154099922564 2 -1 0
4078 565 3 0.145 7.945785094469627 8.956798837112801 36.660434851644744 -1 1 -2
969 127 9 -0.18 5.5105525572236385 5.890671906779393 37.94280018710143 -1 2 -1
754 99 8 0.145 4.660701464665683 7.453172342613466 33.791398818414265 -1 0 0
4081 565 1 0.04 6.861795584387507 8.621782788670707 36.65590433017273 -1 1 -2
3913 537 1 0.04 0.7746614992175672 1.1283452213208498 32.90651769539445 0 1 1
4080 565 1 0.04 8.219578791215792 9.228225121383884 35.629199563191946 -1 1 -2
4340 608 1 0.04 0.5262104451110146 3.235549386254009 29.189670731133933 0 0 0
971 127 7 0.06 5.588185120655454 5.053355607819181 37.18525336631214 -1 2 -1
2636 351 7 0.06 9.165692250282166 5.2703574469148355 33.542796401357144 -1 0 1
4468 630 3 0.145 9.33093616364955 4.073905679921767 37.85262164401798 0 1 2
2634 351 9 -0.18 9.420702680235555 5.268825746948232 32.48504592443791 -1 0 1
4082 565 1 0.04 7.965834966101114 9.802001186758481 37.28501554460496 -1 1 -2
4341 608 2 0.418 0.521542779414184 3.7373760784062564 26.522765603154692 0 0 0
4469 630 4 -0.6830000000000001 9.7022523775743 3.1371542254848306 36.82441593269004 0 1 2
837 109 7 0.06 0.2630379089223093 7.332592879133104 31.24794396296026 -1 0 1
3870 530 1 0.04 7.920427566616928 0.6863272963277824 37.96676018293148 1 0 0
3779 515 4 -0.6830000000000001 5.786470933454433 11.247115589960009 2.6679415011262035 2 3 1
4097 568 4 -0.6830000000000001 2.9578534967587276 14.473749408170644 5.755476990988339 -1 1 0
4467 629 2 0.418 2.4330145629375473 12.857523341261292 5.514027294688276 0 1 0
3778 515 3 0.145 5.7230493634587445 11.303324364489185 4.048930304026603 2 3 1
3782 515 1 0.04 5.499397717314903 10.328269977844407 4.516117220934849 2 3 1
4101 568 2 0.418 2.1230191666121523 14.9100567369514 5.562579337877614 -1 1 0
4096 568 3 0.145 4.069170734212898 15.420463122040696 5.3805450442741245 -1 1 0
4463 629 4 -0.6830000000000001 2.0609549629412487 11.94632850086321 5.490952027854296 0 1 0
4100 568 1 0.04 4.113931094490805 16.423507749575688 5.801612096533549 -1 1 0
4098 568 1 0.04 5.007235920914979 14.986616031484814 5.791387575171322 -1 1 0
4099 568 1 0.04 4.328696842774818 15.453500012118566 4.364623942751871 -1 1 0
2118 279 7 0.06 7.609826923138519 14.580679300869237 6.232045022626089 0 0 3
3815 521 4 -0.6830000000000001 0.6008921622012489 15.379440849384778 4.930465309200738 1 -1 3
2116 279 7 0.06 7.6721862064187345 15.618435271949682 4.810655448439243 0 0 3
2115 279 9 -0.18 7.9080182039025955 15.56087254905357 5.803604534403539 0 0 3
1536 201 2 0.418 5.80871227920262 16.793290907024538 1.4915827455928585 -1 -1 -3
3949 543 1 0.04 0.8137652735081842 16.723168265669653 8.006717233975134 1 0 -1
2804 374 4 -0.6830000000000001 2.6083296694938554 14.07291713168597 0.9153608346314427 2 2 2
2117 279 7 0.06 7.39662911387825 16.24817496624424 6.448513729355712 0 0 3
2808 374 2 0.418 3.3189742433053957 13.42212103967514 0.5965948331719377 2 2 2
2806 374 1 0.04 1.9262261816427926 14.465758110681112 2.7729020515738703 2 2 2
351 47 5 0.418 4.969597856992468 15.374190267145606 9.620239734625404 -1 -1 0
3781 515 1 0.04 4.965885106308618 11.9623670810918 4.421838834387191 2 3 1
3079 410 3 0.145 0.9121003453211114 10.902622908272901 10.661599579695682 5 0 1
3534 474 1 0.04 8.95493930472945 12.933304918597265 1.4636974759389354 -1 0 0
2807 374 1 0.04 2.1827806356211825 12.722631163587137 2.34096152493278 2 2 2
4092 567 1 0.04 6.401136453143038 11.860317801966184 8.48577350332191 -1 1 1
357 47 7 0.06 3.603143475021625 16.720124983261623 10.51361243835896 -1 -1 0
3024 402 7 0.06 7.4724623579987375 18.503459546103848 3.793621988057127 1 2 -1
1533 201 1 0.04 6.415571964474578 15.075312312843337 2.585629085780626 -1 -1 -3
3637 491 1 0.04 9.376060536337729 12.629618094297836 12.782278351131874 -1 -2 1
2739 366 5 0.418 7.139144373571004 10.25881122888351 9.635351387052019 3 0 0
2805 374 1 0.04 3.5691071176900078 13.895017175218868 2.7153137258821367 2 2 2
2859 382 1 0.04 8.828571529477165 18.53072722614428 8.135481183791217 2 1 2
2803 374 3 0.145 2.5738996075797473 13.763838452789757 2.2805554795278145 2 2 2
4466 629 1 0.04 2.622665519712506 10.19147892654991 6.519933427633173 0 1 0
3635 491 4 -0.6830000000000001 7.4327669721532805 13.209365611426806 12.515503434221197 -1 -2 1
2947 394 8 0.145 2.3704584348392377 14.11639738467451 9.520306640810272 -3 -2 0
1566 205 9 -0.18 2.2434687583251733 18.816652184483587 12.874492191162284 -2 0 1
4553 644 4 -0.6830000000000001 4.232628354728756 17.238155710369966 1.2734001106424906 2 -1 -1
3780 515 1 0.04 6.69728328489983 11.624543688813496 4.402654783528522 2 3 1
1905 251 2 0.418 4.903642732567488 11.908914176322302 1.377439168902916 -1 -2 3
349 47 8 0.145 5.331941087609315 17.226531701393736 9.157360463716527 -1 -1 0
3819 521 2 0.418 0.06753005076803806 15.318802307314785 5.754682696341411 1 -1 3
4094 567 1 0.04 7.338467850201991 13.045218737474523 7.86127909544815 -1 1 1
2741 366 6 0.06 6.900962988194752 11.123032086872767 11.664049001772701 3 0 0
1531 201 3 0.145 7.029530303672036 15.316356800225721 1.7282079948106874 -1 -1 -3
3783 515 2 0.418 6.304233274583816 10.472384270410835 2.398197362478073 2 3 1
3816 521 1 0.04 0.5566704570388763 16.4737316713868 3.187806796742416 1 -1 3
2737 366 8 0.145 6.050956128273375 10.597260047551378 11.251467152368695 3 0 0
1565 205 6 0.06 0.3720367075861946 18.431791181681252 11.943677596538171 -2 0 1
2595 346 5 0.418 7.252927607560347 15.591205098701526 10.416094978320526 1 0 0
4462 629 3 0.145 2.654339297379593 11.292642223215287 6.558688644367106 0 1 0
1568 205 7 0.06 2.587015133348285 17.878618635044838 12.556126541402538 -2 0 1
1535 201 1 0.04 8.082957993104843 15.116658366109439 1.9672511213064567 -1 -1 -3
4552 644 3 0.145 3.939156815130062 18.55597848031055 1.6354192701814467 2 -1 -1
353 47 6 0.06 6.115362965396177 17.906697085799856 9.105992438559321 -1 -1 0
4095 567 2 0.418 8.96086671655267 11.694250891467172 7.770062226342963 -1 1 1