LAMMPS data file via write_data, version 29 Aug 2024, timestep = 1000000, units = real

5727 atoms
10 atom types
4998 bonds
8 bond types
7809 angles
10 angle types
7148 dihedrals
7 dihedral types

-0.6812492180252292 39.62236921801843 xlo xhi
-0.33462391129518565 39.07173391128076 ylo yhi
-0.22972431164231466 38.66794431164894 zlo zhi

Masses

1 1.008
2 1.008
3 12.011
4 15.999
5 1.008
6 1.008
7 1.008
8 12.011
9 12.011
10 15.999

Pair Coeffs # lj/cut/coul/long

1 0.03 2.5
2 0 0.5
3 0.066 3.5
4 0.17 3.12
5 0 0.4
6 0.03 2.5
7 0.03 2.5
8 0.066 3.5
9 0.066 3.5
10 0.17 3.12

Bond Coeffs # harmonic

1 340 1.09
2 320 1.41
3 553 0.96
4 268 1.529
5 340 1.09
6 340 1.09
7 320 1.41
8 553 0.96

Angle Coeffs # harmonic

1 55 108.5
2 33 107.8
3 35 109.5
4 55 108.5
5 37.5 110.7
6 33 107.8
7 37.5 110.7
8 33 107.8
9 50 109.5
10 35 109.5

Dihedral Coeffs # opls

1 0 0 0.45 0
2 -0.356 -0.174 0.492 0
3 0 0 0 0
4 0 0 0 0
5 0 0 0.318 0
6 0 0 0.45 0
7 0 0 0.468 0

Atoms # full

2799 374 2 0.418 6.047333780511488 3.1186584288624553 2.2195996276585084 0 1 1
1319 178 4 -0.6830000000000001 4.152778401094981 2.422080944254483 2.918156871473396 0 0 1
174 24 2 0.418 2.0433005232945027 6.020502654769412 0.09704075613578333 0 -1 0
169 24 3 0.145 2.6646444845698474 5.127402162082366 1.7056158256431357 0 -1 0
1323 178 2 0.418 4.018631015694649 2.1252376355399054 3.796642628845574 0 0 1
1318 178 3 0.145 3.1546522449654675 1.886851379536708 2.061680324781458 0 0 1
2794 374 3 0.145 7.6872541128117255 4.057942416803617 1.7974525378348392 0 1 1
173 24 1 0.04 2.0783240361904576 4.633768616401724 2.5645207589826637 0 -1 0
1321 178 1 0.04 2.2156094840779663 2.3423766846164193 2.2227904068719857 0 0 1
1320 178 1 0.04 3.215966945143229 0.9019288190073131 2.2568649268805103 0 0 1
170 24 4 -0.6830000000000001 1.6108720591476828 5.613040893833291 0.9197225503381299 0 -1 0
2797 374 1 0.04 8.528527604954098 4.026991319539533 1.2103508334820117 0 1 1
172 24 1 0.04 3.1787985123155886 5.903823428535645 2.2644353147110454 0 -1 0
3616 484 1 0.04 3.878223603702663 7.540553615643656 6.305439975828712 1 1 2
2795 374 4 -0.6830000000000001 6.829934354038571 2.992628246247443 1.646686285305719 0 1 1
171 24 1 0.04 3.4124571921406277 4.520522831960671 1.0857070055907962 0 -1 0
1322 178 1 0.04 3.4609460745047045 2.0211092681826557 1.0186226541107748 0 0 1
179 25 1 0.04 7.546833713201638 9.248990391860133 2.3651789065691124 1 0 -1
2796 374 1 0.04 7.9178589243316 4.146590125922257 2.853288906072792 0 1 1
3661 491 3 0.145 5.941433589008662 8.50839089417073 9.91916003010745 1 -1 0
3392 455 4 -0.6830000000000001 7.975057409003947 5.417588662849999 11.600761778480187 0 1 1
2897 387 7 0.06 3.081363756732413 6.400867154094393 9.662573157288232 0 -1 1
3774 505 2 0.418 0.023123926038114417 4.8511891384887 1.377371310310132 0 -2 0
1278 173 1 0.04 1.7016225915007288 2.5169907064345463 4.777486616489158 1 1 2
3665 491 1 0.04 6.542436605422787 8.656996414534344 10.83710828716379 1 -1 0
176 25 4 -0.6830000000000001 7.12771905127337 8.073872119318755 4.111301291122098 1 0 -1
175 25 3 0.145 6.8071707814992 8.47021197410895 2.781960047562004 1 0 -1
2798 374 1 0.04 7.260363355095687 5.002507077177774 1.546034453920961 0 1 1
180 25 2 0.418 7.9653734449520375 7.495692187680698 4.055176463403048 1 0 -1
2767 370 3 0.145 9.250433194489318 0.0369384195575469 1.6175998175573238 -1 1 -1
5094 659 9 -0.18 9.38445917267442 1.4280976353862773 10.273412703543737 0 2 0
3773 505 1 0.04 -0.6293760809779743 2.589906171934715 1.6784874663155358 0 -2 0
2772 370 2 0.418 7.980226712497247 1.5078611048630448 1.4335451867235403 -1 1 -1
2768 370 4 -0.6830000000000001 8.812920918245759 1.241594764721527 1.0243060454849304 -1 1 -1
4126 551 3 0.145 5.649639330151408 0.37275205020072255 0.4763885377005104 -1 -1 0
2771 370 1 0.04 9.26677587619872 0.09842971621157931 2.6848138822052094 -1 1 -1
4868 634 6 0.06 -0.26821490986111285 3.7462983515372574 11.211549172680721 0 -1 1
1289 174 7 0.06 6.778990947385637 3.429750691333599 8.610514804181985 1 -1 0
1782 237 7 0.06 3.05438609043049 5.115868786147297 12.441983839647627 1 1 0
5372 690 6 0.06 5.213200050971116 0.3029752213627048 12.015038518383575 2 1 3
3615 484 1 0.04 3.6073865213590723 5.736485294715537 6.0070582451667835 1 1 2
1290 174 7 0.06 6.55258562394576 2.4210677003418883 7.260628406940525 1 -1 0
4292 570 6 0.06 0.34764844556244157 -0.23487417499228458 8.727203769329396 1 0 0
2892 387 5 0.418 -0.5189553703840136 7.447186524768637 9.457984652651085 0 -1 1
1280 173 1 0.04 2.0747359566549544 3.1046106267043 6.3264694714768295 1 1 2
3393 455 1 0.04 6.162439221385301 4.995362110363512 12.711274079491936 0 1 1
4871 634 7 0.06 1.5228143681030542 3.8619376704821144 9.217774554348392 0 -1 1
4015 536 1 0.04 -0.4048247690814684 0.04929155683812336 3.9475797846223895 1 2 0
2894 387 6 0.06 1.289541360537215 7.637070789881587 8.386137325250266 0 -1 1
1718 230 10 -0.6830000000000001 8.70374229289961 6.650532128165167 9.253910252140418 -1 1 1
4024 537 7 0.06 2.053906425195782 9.43447339173951 4.6722165693928135 -1 1 1
5097 659 7 0.06 8.97326119670754 0.486258152646024 9.953085622556294 0 2 0
1438 193 7 0.06 7.497080268895141 1.971709173662282 12.671586432606492 0 -1 1
1719 230 5 0.418 8.834062375136362 6.319853728381843 10.10998682821933 -1 1 1
5336 686 6 0.06 8.964146788732135 0.9375219218317628 6.62961687181243 1 -1 -1
1279 173 1 0.04 1.4164474086098617 1.6313932036466825 6.128269619001367 1 1 2
177 25 1 0.04 6.938738483408303 7.644759245358524 2.0548207957821387 1 0 -1
178 25 1 0.04 5.7675141862004065 8.839626931448965 2.672001478277276 1 0 -1
1724 230 7 0.06 8.563177182894675 4.981337517230491 6.336307253710656 -1 1 1
4128 551 1 0.04 5.835497815061377 0.43592369660160535 1.5403658807021972 -1 -1 0
4872 634 7 0.06 0.9309893306246868 2.197456171573397 8.8159678654866 0 -1 1
3664 491 1 0.04 5.378955384393599 7.518694792496199 10.078644152038413 1 -1 0
4870 634 7 0.06 1.7926419034927177 2.448269022619903 10.314171779248548 0 -1 1
3395 455 1 0.04 6.610597998223108 3.856502616660933 11.552934880027411 0 1 1
2893 387 6 0.06 1.895409500634305 8.761122927432588 9.465230021962869 0 -1 1
1284 174 5 0.418 4.399189089677544 0.748612026115989 8.951287792252495 1 -1 0
264 36 2 0.418 -0.4448503695061936 8.476895076476328 11.684906818218412 2 0 1
2890 387 8 0.145 1.3979767188077878 7.812862561419481 9.445619381216389 0 -1 1
5371 690 6 0.06 3.8261072676957895 0.9557973733893634 11.031560056738334 2 1 3
4869 634 9 -0.18 1.080385427079001 2.9372562519433663 9.616931247002574 0 -1 1
3219 431 2 0.418 -0.6335473984274798 4.4904892099370395 3.5615568795824677 0 1 2
3215 431 4 -0.6830000000000001 -0.306603653476879 4.058187876985686 4.346948034596233 0 1 2
4864 634 8 0.145 -0.2568044436880173 3.1083532336417172 10.362166569448007 0 -1 1
5335 686 6 0.06 8.581903806177648 1.0646304238320015 4.825303908900647 1 -1 -1
2895 387 9 -0.18 2.118669675458595 6.6408619922271885 10.120848042887737 0 -1 1
3394 455 1 0.04 5.948131977527615 5.445933477939883 10.885580593546615 0 1 1
5338 686 7 0.06 6.563423154655121 0.21612733292587993 6.108673339815317 1 -1 -1
3663 491 1 0.04 5.172927098957932 9.288205669786175 9.800900252587672 1 -1 0
3613 484 3 0.145 4.3197992954991475 6.540512602678417 6.251465495563379 1 1 2
3614 484 4 -0.6830000000000001 5.199065320084198 6.355322845416987 7.349644364057469 1 1 2
5368 690 8 0.145 4.376785894389506 0.06481248641004156 11.330156196970059 2 1 3
1277 173 4 -0.6830000000000001 3.3376898233273984 1.7303658812926086 5.681790756146245 1 1 2
1287 174 9 -0.18 6.327759265164268 2.4897250355465204 8.334946449896004 1 -1 0
3618 484 2 0.418 5.701975734161092 7.170811854194441 7.372263656957959 1 1 2
1283 174 10 -0.6830000000000001 4.214136250594955 1.3840588756856869 8.19502397942035 1 -1 0
5332 686 8 0.145 8.673393022905188 0.3436111421053635 5.735013946118062 1 -1 -1
1722 230 9 -0.18 8.622413204246962 5.879625169721668 6.953496738883008 -1 1 1
3662 491 4 -0.6830000000000001 6.632034776492889 8.512272682940306 8.714824391730435 1 -1 0
2898 387 7 0.06 1.4981755602376667 5.80363306053118 10.294504559936373 0 -1 1
1286 174 6 0.06 4.391575121605503 3.2642406075615877 7.743783969100228 1 -1 0
4131 551 2 0.418 6.057301639448806 2.2423057884162296 0.40965164252650854 -1 -1 0
1276 173 3 0.145 2.0930304013222925 2.2860499142922777 5.730405194881555 1 1 2
1281 173 2 0.418 3.666406695555332 1.668424148810241 6.606345677674686 1 1 2
3617 484 1 0.04 4.9687464584846746 6.657020945762889 5.342350314946205 1 1 2
1282 174 8 0.145 4.791018275476687 2.5852658252984035 8.519439436511224 1 -1 0
1285 174 6 0.06 4.476841300521019 2.9070134495931264 9.514019453356461 1 -1 0
3391 455 3 0.145 6.573338699797734 4.959923807372428 11.673877000739665 0 1 1
3396 455 2 0.418 8.347306277608945 5.124398629217413 12.46616268530631 0 1 1
2896 387 7 0.06 2.363318527239638 6.917798287956561 11.154604624037416 0 -1 1
2891 387 10 -0.6830000000000001 0.11045522103503991 8.068214126343305 9.905516659977266 0 -1 1
1723 230 7 0.06 7.608071174667014 6.390051319269056 6.839779541145001 -1 1 1
3666 491 2 0.418 7.344083653494252 7.888172596912593 8.905763248246155 1 -1 0
1288 174 7 0.06 6.777244624538399 1.7155326112975398 8.98284365808418 1 -1 0
5096 659 7 0.06 8.498614679174795 1.9959340961273604 10.645088876902163 0 2 0
1717 230 8 0.145 8.961339484649127 5.599595202140717 8.38971123830287 -1 1 1
1720 230 6 0.06 8.296162256012702 4.766442469747512 8.761867110900097 -1 1 1
3893 520 7 0.06 2.0900444284587163 9.402771666319639 11.819823263798249 0 -1 0
3349 449 1 0.04 -0.4433946699607227 7.752426805593116 2.2390744129870908 1 0 1
4129 551 1 0.04 4.620722054495303 -0.03802387522616063 0.32879368773504825 -1 -1 0
4130 551 1 0.04 6.344122542913435 -0.33301077653902666 0.09207919206156695 -1 -1 0
4127 551 4 -0.6830000000000001 5.793296154928469 1.5305135333498106 -0.22921652800386738 -1 -1 0
1776 237 5 0.418 4.860975954259331 5.819517764904548 15.05399747324497 1 1 0
2727 364 1 0.04 7.9292675258353515 6.557999309804978 14.098948268897693 0 1 0
2726 364 4 -0.6830000000000001 6.831927345062802 5.440033661564339 15.475135468121916 0 1 0
2725 364 3 0.145 7.940951282324752 6.277422876772876 15.146583887640048 0 1 0
2729 364 1 0.04 8.87673245483952 5.786068457662114 15.240623475012782 0 1 0
2730 364 2 0.418 7.158813787649653 4.515779760498245 15.250120903615695 0 1 0
2236 298 3 0.145 8.360833862786496 7.3804450786869475 22.81285058444794 1 -1 1
1432 193 8 0.145 7.811505345233025 1.978140952459229 14.785939271023615 0 -1 1
1436 193 6 0.06 8.721261138939866 1.382810284367689 14.846419046324712 0 -1 1
1775 237 10 -0.6830000000000001 4.06444210640217 6.228836770903353 14.616824971829805 1 1 0
1774 237 8 0.145 3.0394853645388618 5.25984384934581 14.594526021214465 1 1 0
2728 364 1 0.04 7.922177485087843 7.0950017546104185 15.770709831068359 0 1 0
1777 237 6 0.06 2.1516814059911424 5.873459386173231 14.444227418023823 1 1 0
4444 587 6 0.06 4.050910308670041 1.6961385264497695 19.067526546911925 2 0 -2
1642 220 6 0.06 -0.4166160363842312 5.6823479436577955 23.677629684136175 2 0 -2
1433 193 10 -0.6830000000000001 8.165610627750604 3.328859783846044 14.679019006293649 0 -1 1
2239 298 1 0.04 7.58832187184437 6.656655769195481 22.969676052916753 1 -1 1
1779 237 9 -0.18 3.168269402556419 4.4703669204487975 13.356583802976878 1 1 0
1778 237 6 0.06 2.993629316235718 4.595746134584035 15.49353203297876 1 1 0
5084 658 6 0.06 -0.006003855561156679 3.245493919818275 13.828405236260496 1 -1 -1
1780 237 7 0.06 2.5713389299633387 3.532747278660837 13.327809392401495 1 1 0
5556 710 7 0.06 1.8998660692669462 7.470706985998514 16.46634853620481 1 1 0
5080 658 8 0.145 -0.45992109261683994 2.3523316903381772 14.351597177706262 1 -1 -1
5287 681 8 0.145 6.971401591127474 1.5003595875545643 20.127249184745526 2 0 -1
5290 681 6 0.06 5.918316583252244 1.3045075427183377 20.097735505202504 2 0 -1
4441 587 8 0.145 3.478314792366021 1.5689045857315846 18.10856741985955 2 0 -2
1437 193 9 -0.18 6.983807320478767 1.6110286728636487 13.555826724539907 0 -1 1
4449 587 7 0.06 4.706339272919636 2.4606075817636475 16.388738936721186 2 0 -2
3840 513 7 0.06 4.9118446822971675 5.155114727241183 18.087912409344856 2 0 0
4448 587 7 0.06 5.167575627057548 0.795526964630372 17.028673072154785 2 0 -2
5528 707 7 0.06 2.6285069341338008 6.699409268783558 23.625629836151774 2 0 0
3197 428 1 0.04 0.5550360229289479 2.962122841428108 25.59720197609649 0 -1 2
1439 193 7 0.06 5.953085906474922 2.018039595049015 13.54359784427996 0 -1 1
4446 587 9 -0.18 4.345069816292301 1.5744903217493351 16.845777221540306 2 0 -2
5087 658 7 0.06 1.1605417365530672 2.3372972061662094 15.700630336480732 1 -1 -1
2837 379 7 0.06 8.471092575298325 7.072528627390173 19.666415088217324 0 0 -2
3165 424 1 0.04 2.7826805181945833 1.5792196120018476 20.9498199951262 2 -1 1
2459 328 6 0.06 7.1994013514081265 -0.13376409762838717 22.991987624679744 0 0 -2
5555 710 7 0.06 2.391724039401564 8.8320969650906 15.591640806553263 1 1 0
1440 193 7 0.06 6.933608261339609 0.5091798679340709 13.519516267542807 0 -1 1
3167 424 1 0.04 1.3987062725254038 1.263028069967303 22.06103881894029 2 -1 1
4447 587 7 0.06 3.783444643028706 1.2029427250896836 16.021911366424458 2 0 -2
3168 424 2 0.418 0.17215381673588437 0.36679281905221783 20.39601400009797 2 -1 1
5292 681 9 -0.18 7.675443955892222 0.9932569818123678 18.90649534188936 2 0 -1
1434 193 5 0.418 8.971887466966038 3.370171984277093 15.18819364517727 0 -1 1
3837 513 9 -0.18 4.189484239284693 5.707242884998466 18.584420997288472 2 0 0
5552 710 6 0.06 -0.2396662072918494 8.4645781199866 16.46453074645017 1 1 0
4442 587 10 -0.6830000000000001 2.849319385752277 0.32840476784319717 17.985179884886684 2 0 -2
5295 681 7 0.06 7.193673166081027 1.47860555892336 18.085031069614292 2 0 -1
5553 710 9 -0.18 2.0040091828533892 8.57303717311176 16.51429962149765 1 1 0
2835 379 9 -0.18 8.556854464380507 6.044145166112277 19.49463999886642 0 0 -2
3838 513 7 0.06 4.176241873687918 6.763950845003372 18.197855588427462 2 0 0
3839 513 7 0.06 3.209274500666251 5.23192196206895 18.350302889752275 2 0 0
4445 587 6 0.06 2.66034662424511 2.3473810784915683 18.231225766883966 2 0 -2
5294 681 7 0.06 8.782433220320017 1.1148034571957697 18.981886823377017 2 0 -1
2836 379 7 0.06 7.645960354499518 5.671551275082477 19.02158725659048 0 0 -2
5550 710 5 0.418 0.13136727497709644 8.595497598121586 18.59630235619022 1 1 0
3163 424 3 0.145 1.6373759960409364 1.5295525841406752 20.988873743110265 2 -1 1
3193 428 3 0.145 1.5625624749915081 3.072685842870876 25.10175855845033 0 -1 2
5548 710 8 0.145 0.6107201625920828 9.13957342656384 16.757293551268724 1 1 0
4443 587 5 0.418 2.1680053614765664 0.34002311217678993 18.715511399184336 2 0 -2
5291 681 6 0.06 7.324230234495358 0.9923416893414687 20.997449160599395 2 0 -1
731 100 4 -0.6830000000000001 4.280582413227801 3.070102356828125 23.42713475549341 0 0 1
5086 658 7 0.06 0.25171528341772587 0.9079438538885687 15.902763633348258 1 -1 -1
2838 379 7 0.06 8.585639566267382 5.455857126132305 20.379274772899663 0 0 -2
1435 193 6 0.06 7.240168427037619 1.7718833551121729 15.700951431633124 0 -1 1
3164 424 4 -0.6830000000000001 1.1160774111138974 0.5162090453255642 20.198026441440728 2 -1 1
5293 681 7 0.06 7.5504852809247005 -0.10457871140078343 18.848640138271307 2 0 -1
2240 298 1 0.04 7.9218667170174975 8.214082143123106 22.23141047143741 1 -1 1
1547 208 10 -0.6830000000000001 -0.3813469710032347 7.369487126655815 19.566401804855836 2 0 -1
1550 208 6 0.06 1.4090348620767679 7.85414245989557 20.420235634850567 2 0 -1
1781 237 7 0.06 4.155357674245848 4.12873151157023 13.261254235237125 1 1 0
1554 208 7 0.06 1.1959569728702335 5.4120589518313995 21.66343287938196 2 0 -1
5640 720 5 0.418 1.3290815010480403 0.02699588196439373 24.94579169662147 1 0 -1
3166 424 1 0.04 1.2567994924178258 2.5608249276010495 20.775738276419847 2 -1 1
5088 658 7 0.06 1.3113908517043273 0.9740672317974748 14.616845473677646 1 -1 -1
732 100 1 0.04 6.104849770819546 2.2607179218128794 22.71300805988148 0 0 1
3832 513 8 0.145 4.55637577394214 5.73326761865515 20.10116611604184 2 0 0
5525 707 6 0.06 3.6482510655174742 8.820404971001615 24.659139411041142 2 0 0
5085 658 9 -0.18 0.6667239303325037 1.5947190126595765 15.13070007843165 1 -1 -1
5529 707 7 0.06 2.75964169008831 5.986413284885617 25.288916779661086 2 0 0
2238 298 1 0.04 9.219243865691968 6.888676876717059 22.339717654474892 1 -1 1
734 100 1 0.04 5.821356140500746 2.495345980197043 24.47329757992823 0 0 1
3196 428 1 0.04 1.4927192364448953 3.8897797773210385 24.375211302005262 0 -1 2
1552 208 7 0.06 0.883125968944469 5.191006598441221 19.8644802816906 2 0 -1
3194 428 4 -0.6830000000000001 2.0088105123814803 1.80389896626617 24.640674930822264 0 -1 2
733 100 1 0.04 6.243833922325714 3.860654058058576 23.395560070189163 0 0 1
2237 298 4 -0.6830000000000001 8.73107772280612 7.956099253354129 24.086613156617123 1 -1 1
1549 208 6 0.06 -0.09004755679136411 7.722492128684239 21.4737321360566 2 0 -1
3833 513 10 -0.6830000000000001 4.638583564927428 4.411600474962725 20.655215069547967 2 0 0
730 100 3 0.145 5.665800688498955 2.8970960506590075 23.51198494028915 0 0 1
5554 710 7 0.06 2.7360883047578426 8.900847172577262 17.2252081647775 1 1 0
1553 208 7 0.06 -0.33808102157244063 5.406067057930851 21.223467558694164 2 0 -1
1551 208 9 -0.18 0.5981452117348951 5.793944657189603 20.824003567422526 2 0 -1
1546 208 8 0.145 0.48826256777257004 7.315884446883987 20.659585267881045 2 0 -1
3012 403 2 0.418 -0.224678737316455 0.42926419219293 12.839674807879852 1 2 1
5521 707 8 0.145 3.1455937981245405 8.074944205555036 25.26204556594892 2 0 0
5526 707 9 -0.18 3.2116096616950593 6.70050690170314 24.599655782356184 2 0 0
5522 707 10 -0.6830000000000001 1.8451108849491735 8.570457734236983 25.41346340995842 2 0 0
3836 513 6 0.06 3.764770182282632 6.258935991961388 20.684358536281056 2 0 0
5527 707 7 0.06 4.258713151455286 6.544272779659837 24.396143117894265 2 0 0
5288 681 10 -0.6830000000000001 7.275532049068803 2.8504638594772707 20.306156133763004 2 0 -1
5289 681 5 0.418 8.194466320566155 2.9166947227582 20.207806605238773 2 0 -1
3834 513 5 0.418 5.393069417524057 4.020077152464318 20.17323166905438 2 0 0
3835 513 6 0.06 5.50090126735943 6.268336432098757 20.37828167632149 2 0 0
735 100 2 0.418 4.14867902676326 3.660430131418082 22.64323565102313 0 0 1
3198 428 2 0.418 2.9080107356378053 2.035252084004547 24.334078035821296 0 -1 2
3389 454 7 0.06 6.727874977965147 8.955783061197453 16.262697077509465 2 0 -1
4311 572 9 -0.18 9.182927503638746 3.186332032143326 25.219820512467358 0 0 0
4314 572 7 0.06 8.480204223681419 2.6310860665358877 24.635973166152695 0 0 0
5549 710 10 -0.6830000000000001 0.4092333985965584 9.414937893954882 18.106981804289475 1 1 0
4312 572 7 0.06 8.597394702720884 4.061776699472856 25.485341421641053 0 0 0
3388 454 7 0.06 5.212574503386139 9.394332426607258 16.747988051276046 2 0 -1
3359 451 10 -0.6830000000000001 2.3800528434899433 4.097638115663595 29.024726108376296 0 2 -2
3360 451 5 0.418 1.536471800171773 3.7545289074711548 29.34068969963086 0 2 -2
2545 340 8 0.145 5.8435442388883185 7.397602567625222 32.919798668814764 0 0 -1
2548 340 6 0.06 6.078188787997402 7.2639529113297705 33.97686556745913 0 0 -1
2546 340 10 -0.6830000000000001 6.863430187773564 8.245104483426061 32.45179138652635 0 0 -1
2547 340 5 0.418 7.703780225540319 7.8348365351990825 32.71789592422489 0 0 -1
3358 451 8 0.145 2.9887846597260532 3.0472528994977375 28.344012216354315 0 2 -2
3362 451 6 0.06 3.0506364174232696 2.220103255007578 29.158700980740097 0 2 -2
3365 451 7 0.06 5.002705542557675 3.7675383238691733 28.418348564026665 0 2 -2
3363 451 9 -0.18 4.314969406627646 3.398539219070689 27.629229854415783 0 2 -2
3361 451 6 0.06 2.255406399215392 2.5920763165346887 27.742249194941884 0 2 -2
2549 340 6 0.06 5.936499308838523 6.440121792778071 32.41317563557619 0 0 -1
3366 451 7 0.06 4.284334690601499 4.127577495553263 26.8234731834547 0 2 -2
2403 320 2 0.418 8.79730664502495 5.882855404043426 32.12913068391268 1 2 -2
4049 541 10 -0.6830000000000001 -0.1713788679143653 3.7150800032607236 29.608011742769616 0 0 -1
2713 362 7 0.06 0.6772199572543922 -0.19412816339102965 32.255123400974036 0 1 1
3364 451 7 0.06 4.831720150842023 2.548866997990343 27.149119432670318 0 2 -2
3103 416 3 0.145 2.476726642879858 7.770800980180184 29.40973916763763 0 -1 -3
2432 325 10 -0.6830000000000001 6.157978168412657 7.9693533964382794 29.933049881286124 0 0 -1
2433 325 5 0.418 6.487762835301474 8.238067238241308 30.801021569527002 0 0 -1
3108 416 2 0.418 4.348535590697431 8.297138002208031 29.23842835682697 0 -1 -3
2808 376 5 0.418 7.192658236820158 3.927954898984006 31.8467188549521 1 -1 0
4615 606 6 0.06 4.928940432648366 2.893744926955585 30.703752111264638 0 0 -1
3104 416 4 -0.6830000000000001 3.4737684297456166 8.681455008708957 29.006309372063498 0 -1 -3
3105 416 1 0.04 1.480348567098722 8.240061878213263 29.597238804448338 0 -1 -3
3107 416 1 0.04 2.7751370533514716 7.211919324166523 30.231850700108588 0 -1 -3
3106 416 1 0.04 2.410889338910851 6.925944198706576 28.668293551206478 0 -1 -3
2807 376 10 -0.6830000000000001 8.065261790321507 4.200651873788993 31.4197322859668 1 -1 0
2810 376 6 0.06 7.077541321921216 3.493503230054948 29.70852538543551 1 -1 0
2431 325 8 0.145 6.834139079726043 6.713345361220163 29.703813672915867 0 0 -1
2435 325 6 0.06 7.881712524039795 6.802499810034528 29.829146381464486 0 0 -1
3081 412 7 0.06 2.3128701779353675 2.7950123726704925 34.72276708172595 1 0 1
2434 325 6 0.06 6.418742305112858 5.866320619936373 30.326002620203564 0 0 -1
2809 376 6 0.06 8.743510870083677 4.140286964926282 29.513800620787585 1 -1 0
1380 185 7 0.06 1.0833674249839713 5.758883274678387 31.454502618896203 0 0 0
2436 325 9 -0.18 6.622391419444928 6.495440238647666 28.26335910619622 0 0 -1
1799 240 10 -0.6830000000000001 8.929509755320845 7.437797594951486 35.06032999559379 1 1 0
5011 650 6 0.06 0.42358712351464645 6.303190454361465 36.95709910323403 1 1 -1
1801 240 6 0.06 9.21526683397886 9.343648812897246 34.10564548394594 1 1 0
2438 325 7 0.06 7.179673431851011 5.657673222297891 27.796135547711916 0 0 -1
5015 650 7 0.06 0.8199209891845187 8.687360847138024 36.521642759154865 1 1 -1
315 43 2 0.418 5.178800613730652 2.921969573424486 35.808607240402125 1 -1 0
2712 362 9 -0.18 0.13509412381961994 0.4208274022742532 31.601997735770443 0 1 1
5712 728 5 0.418 4.6309880361277616 0.49012642872694223 35.47373617433922 2 2 -1
5012 650 6 0.06 1.594896576434075 5.919195093716807 35.793505668894454 1 1 -1
3468 464 7 0.06 5.065651429743062 9.091933465654957 36.552376260050096 -2 2 -1
312 43 1 0.04 7.451954364767657 2.478349667060623 35.213899197075705 1 -1 0
5524 707 6 0.06 3.649040958148796 8.01843743926882 26.264351627241016 2 0 0
2708 362 10 -0.6830000000000001 -0.0281755002955425 2.3851352737797544 32.93267696820359 0 1 1
311 43 4 -0.6830000000000001 5.664128132430366 3.6391297441412527 35.25562747039083 1 -1 0
850 116 1 0.04 0.7575795129345304 1.3137885102637983 35.33796506411575 0 -1 -1
2437 325 7 0.06 5.541079415701001 6.322719314340773 28.07109840954046 0 0 -1
2812 376 7 0.06 8.869743516883075 1.806328475417203 29.28621843213952 1 -1 0
2806 376 8 0.145 8.046086844150809 3.5788797214587302 30.175433940535 1 -1 0
3467 464 7 0.06 4.0751172189449045 8.510184528206327 37.818713133498 -2 2 -1
2439 325 7 0.06 7.057832687028891 7.355810515799522 27.76394410689312 0 0 -1
1798 240 8 0.145 9.1791791323009 8.887856195798042 35.092723199865965 1 1 0
5010 650 5 0.418 3.2685863541527556 6.598805601649803 36.95982441590092 1 1 -1
3464 464 6 0.06 5.419285353549103 6.300153403143293 37.76605718657286 -2 2 -1
2904 388 2 0.418 6.44770518791487 9.417064958872604 28.6413161550879 1 1 -1
2399 320 4 -0.6830000000000001 9.099928622256723 6.742754574172436 32.45470469466629 1 2 -2
2709 362 5 0.418 -0.18288189666948135 3.3151834405819685 32.59403141136555 0 1 1
3461 464 10 -0.6830000000000001 4.6066029644687205 6.443344359990398 35.999967251667385 -2 2 -1
313 43 1 0.04 7.5426120539408945 4.3522203829748305 35.4165627723942 1 -1 0
3075 412 5 0.418 4.510442444301264 1.7134927736727876 37.5363165462989 1 0 1
1832 244 6 0.06 8.396292850805516 -0.3189674204348071 35.42018305248125 2 -2 -2
314 43 1 0.04 7.077164157173756 3.4280745424676753 36.71889922320773 1 -1 0
2550 340 9 -0.18 4.445077314918136 8.0620221336234 32.812219500216315 0 0 -1
2552 340 7 0.06 4.210464876149902 8.549027493611277 31.836856795314233 0 0 -1
848 116 4 -0.6830000000000001 -0.25461983920093273 0.7270568712349927 37.06937110787703 0 -1 -1
1379 185 7 0.06 -0.0365262100356496 6.911510852656531 30.778640560084945 0 0 0
1375 185 6 0.06 -0.06465643965677326 5.564018304265567 33.45154842843871 0 0 0
4051 541 6 0.06 -0.4470399113114329 4.7346065560996164 27.866697548683533 0 0 -1
3466 464 7 0.06 5.7199082885299495 8.681904480247411 38.18025641628199 -2 2 -1
4617 606 9 -0.18 5.01036181672588 1.4017940593713272 32.307763878530864 0 0 -1
3074 412 10 -0.6830000000000001 4.147494255179124 1.826336103148554 36.63113358244277 1 0 1
3076 412 6 0.06 2.8922793274873175 2.9583414204935923 37.697528752255806 1 0 1
5016 650 7 0.06 0.7872631749483447 8.017632919563594 34.88459820357853 1 1 -1
1372 185 8 0.145 -0.664337762749283 5.924203488962872 32.63102815631941 0 0 0
4618 606 7 0.06 6.029687390809289 1.11786128831666 32.03640455304469 0 0 -1
310 43 3 0.145 6.992271155768174 3.411025277641018 35.670025847786114 1 -1 0
4613 606 10 -0.6830000000000001 5.5957887119395515 3.713738881141274 32.52188542454544 0 0 -1
3465 464 9 -0.18 5.072542135302407 8.369411998779254 37.32997462368156 -2 2 -1
3077 412 6 0.06 2.2147657440969755 1.5368239020919967 37.14761434590259 1 0 1
3078 412 9 -0.18 2.4098961382700916 3.2617906737654727 35.72381314228628 1 0 1
5009 650 10 -0.6830000000000001 2.3765907649680176 6.654923760811503 37.431505619004135 1 1 -1
847 116 3 0.145 -0.21757233261654213 0.8090434148690837 35.67503058572595 0 -1 -1
4614 606 5 0.418 5.5397499810592645 3.626073596915963 33.499035020808364 0 0 -1
4612 606 8 0.145 4.793754187319042 2.8185916292582593 31.78304474095195 0 0 -1
5014 650 7 0.06 2.315783383665839 8.425190264929903 35.55400795996579 1 1 -1
3073 412 8 0.145 2.8654253685308873 2.311844669900113 36.85026712222506 1 0 1
3079 412 7 0.06 3.1476651124777493 4.026447643886842 35.5847481070061 1 0 1
4616 606 6 0.06 3.734415996574766 2.9181890592664197 32.004531198634936 0 0 -1
3462 464 5 0.418 5.009053795553428 5.6499304795060485 35.709917122597226 -2 2 -1
2553 340 7 0.06 4.468576680118639 8.93399934577191 33.5508536369776 0 0 -1
4620 606 7 0.06 4.9304373160431485 1.3910041873297276 33.43167277081708 0 0 -1
1803 240 9 -0.18 7.950461602465117 9.45880220080375 35.90945177451178 1 1 0
3080 412 7 0.06 1.428026772918289 3.4989951161048056 36.11521510432308 1 0 1
4619 606 7 0.06 4.3110207910050695 0.6957427428830618 31.855451141957502 0 0 -1
5013 650 9 -0.18 1.3516327513287245 8.015305103295155 35.830950821636556 1 1 -1
2813 376 7 0.06 8.408710970580051 1.6056310483595109 31.073526957641647 1 -1 0
5642 720 6 0.06 0.7225602792311394 -0.18921699699428524 27.26833313754485 1 0 -1
1378 185 7 0.06 0.8623159137107834 7.318154097854631 32.25123033502892 0 0 0
2551 340 7 0.06 3.7711268286044675 7.266938503212038 33.097961305264576 0 0 -1
3463 464 6 0.06 6.570046772508961 7.022768864884341 36.57184377722681 -2 2 -1
1377 185 9 -0.18 0.39524004609074836 6.528300410936023 31.704986013505327 0 0 0
5008 650 8 0.145 1.307762866388457 6.660513600723128 36.478124413877474 1 1 -1
3460 464 8 0.145 5.490063242905112 6.962328161773167 36.92816672900422 -2 2 -1
2714 362 7 0.06 0.7336596824454471 0.9891871257842673 30.924795167644515 0 1 1
1804 240 7 0.06 7.024786174503687 9.22175745360156 35.42655948916075 1 1 0
2811 376 9 -0.18 8.740871500083024 2.26074754752315 30.255516343987374 1 -1 0
2715 362 7 0.06 -0.4294278473861424 -0.22476998777041396 30.961036967912385 0 1 1
5523 707 5 0.418 1.9109701807965305 9.33134290649612 26.03519565952819 2 0 0
1806 240 7 0.06 8.03549976877178 9.314497240268077 36.96591332742569 1 1 0
2902 388 1 0.04 5.726665671462008 9.446718919740638 26.745670726494104 1 1 -1
4050 541 5 0.418 -0.4351128811373645 3.8896998250035333 30.542313163565588 0 0 -1
1800 240 5 0.418 8.9607346872808 7.1339394301596935 34.152873602961236 1 1 0
851 116 1 0.04 -0.49916288444544066 -0.12128095109625511 35.161895594416926 0 -1 -1
5641 720 6 0.06 -0.5554094362267119 0.3891945884187842 26.16015429874872 1 0 -1
5718 728 7 0.06 2.279675254610764 -0.20319559935862516 34.5543898867193 2 2 -1
3195 428 1 0.04 2.2389733796785825 3.3768311640413082 25.89211346331577 0 -1 2
5329 685 7 0.06 9.255389074769482 5.874294728074389 27.7869760595094 1 1 -1
3560 477 4 -0.6830000000000001 6.622514577927673 13.689523018953182 2.0129819697587603 -1 0 0
3564 477 2 0.418 5.920357661716636 14.374244216593768 2.148425045066775 -1 0 0
4430 585 7 0.06 6.116719757514524 12.558706388860816 10.866896050236404 0 -1 0
3562 477 1 0.04 6.456216893310503 13.02314366337609 4.031061781538042 -1 0 0
4832 630 6 0.06 2.447760142834996 14.512967486950387 1.146400727813848 1 2 0
4426 585 6 0.06 4.405279547775036 14.371035587246913 11.70841338254109 0 -1 0
3940 526 7 0.06 5.3780727358941816 18.780380026677392 2.5930345632897813 0 -2 0
1406 189 4 -0.6830000000000001 8.094644884449743 19.19402744435056 7.158712340516653 1 -2 1
3559 477 3 0.145 7.161315528519527 13.379361315153643 3.2967848512422258 -1 0 0
3563 477 1 0.04 7.7272450023542785 12.484867322061652 3.052219185006028 -1 0 0
3561 477 1 0.04 7.850871909307568 14.121369170330176 3.6192015518662264 -1 0 0
3934 526 8 0.145 5.41443941683515 16.728528580065 2.8641288213685576 0 -2 0
458 63 4 -0.6830000000000001 1.854020816646289 15.970680340570784 3.7418700183130293 -2 0 1
3938 526 6 0.06 5.764152836841505 16.750361166870853 3.9631830426706074 0 -2 0
1246 169 1 0.04 -0.09462632592920994 10.585845114062085 8.893802686362601 1 -2 0