LAMMPS data file via write_data, version 29 Aug 2024, timestep = 1000000, units = real

6444 atoms
10 atom types
5444 bonds
8 bond types
7888 angles
10 angle types
4628 dihedrals
7 dihedral types

0.6968385592305957 42.90981144073385 xlo xhi
1.0284042410491985 42.51329575893335 ylo yhi
1.1196967345292457 42.12311326546673 zlo zhi

Masses

1 1.008
2 1.008
3 12.011
4 15.999
5 1.008
6 1.008
7 1.008
8 12.011
9 12.011
10 15.999

Pair Coeffs # lj/cut/coul/long/gpu

1 0.03 2.5
2 0 0.5
3 0.066 3.5
4 0.17 3.12
5 0 0.4
6 0.03 2.5
7 0.03 2.5
8 0.066 3.5
9 0.066 3.5
10 0.17 3.12

Bond Coeffs # harmonic

1 340 1.09
2 320 1.41
3 553 0.96
4 268 1.529
5 340 1.09
6 340 1.09
7 320 1.41
8 553 0.96

Angle Coeffs # harmonic

1 55 108.5
2 33 107.8
3 35 109.5
4 55 108.5
5 37.5 110.7
6 33 107.8
7 37.5 110.7
8 33 107.8
9 50 109.5
10 35 109.5

Dihedral Coeffs # opls

1 0 0 0.45 0
2 -0.356 -0.174 0.492 0
3 0 0 0 0
4 0 0 0 0
5 0 0 0.318 0
6 0 0 0.45 0
7 0 0 0.468 0

Atoms # full

5831 898 1 0.04 9.847183499119907 13.236109269889214 20.307686107828072 1 -2 0
5557 853 3 0.145 2.493999602254474 4.715279287394118 3.044474983636838 1 1 -2
5558 853 4 -0.6830000000000001 2.268522428834591 5.652028349981213 4.065901618623618 1 1 -2
5561 853 1 0.04 2.6555878241790376 5.246013824720716 2.1057024380074387 1 1 -2
121 17 7 0.06 7.386365940045985 4.091731690797337 3.890236310076586 -1 -1 -1
5562 853 2 0.418 2.1277029333046764 5.138630176769539 4.863170301300873 1 1 -2
5560 853 1 0.04 1.5953108275888421 4.098010588778318 2.876193115279028 1 1 -2
120 17 9 -0.18 8.179865892941653 4.478682456519081 3.260578984203102 -1 -1 -1
4161 620 1 0.04 9.646444060257219 1.264085628561737 2.8377429886007026 -1 -1 -2
5559 853 1 0.04 3.406794995950461 4.210620469226138 3.233821112255876 1 1 -2
123 17 7 0.06 7.7866728790357636 5.343004941670828 2.7572186156405194 -1 -1 -1
3120 446 2 0.418 14.006199925246808 7.448080744836491 20.49161587916958 -1 1 3
3665 537 1 0.04 5.9776251682566794 2.3747103622838703 3.7639608914385994 -1 1 0
118 17 6 0.06 8.982208202132897 5.7720574592940785 4.801882766764035 -1 -1 -1
119 17 6 0.06 9.854237227330819 4.2029583184626915 4.706816541030156 -1 -1 -1
4657 703 3 0.145 10.7938614877536 21.356263584300493 5.348380863232526 0 1 0
5715 879 1 0.04 1.7916029767008734 20.770085933988092 16.0386408228935 1 1 1
117 17 5 0.418 10.450528509126837 5.0715181382835395 2.5723717639386843 -1 -1 -1
116 17 10 -0.6830000000000001 10.388246911770043 5.4833738946385004 3.4580694065717044 -1 -1 -1
115 17 8 0.145 9.334927869312146 4.9504507198634915 4.1516019861666145 -1 -1 -1
122 17 7 0.06 8.412535109447987 3.5979137192548487 2.638481663751099 -1 -1 -1
4540 683 1 0.04 12.923530092108724 6.213288076585092 5.99079127186997 1 1 0
3263 470 1 0.04 13.680589456815538 20.339350654362836 11.516948768331645 -1 0 0
5779 890 3 0.145 6.680883576292382 8.20837099080216 2.1504428733342893 1 0 0
1577 208 6 0.06 14.209105812342187 9.589560631239648 13.394216662410201 -1 1 0
4542 683 2 0.418 10.831915543555898 6.799554183198897 4.742990322619272 1 1 0
4538 683 4 -0.6830000000000001 11.320495662753885 7.34199328564502 5.375278976199984 1 1 0
4537 683 3 0.145 11.94490643551189 6.453627978480469 6.343527594929458 1 1 0
2564 354 4 -0.6830000000000001 1.4645421034011235 3.501547436559351 5.848338218253364 -1 1 1
2523 347 1 0.04 13.219908179380774 19.95876925074387 4.831986676340708 0 -2 4
3588 524 2 0.418 6.118865867546715 21.74714534209901 15.55246123850669 2 -1 -2
3689 541 1 0.04 1.5084251124924457 5.601468985687055 15.96971558607161 0 1 1
2109 278 1 0.04 6.543674969666662 19.696904246423674 2.3706999946835565 1 -1 0
4871 738 1 0.04 4.061292175050935 2.3268614272566435 12.407198933797023 0 -1 1
2750 385 4 -0.6830000000000001 12.947904296177052 3.3809679421071066 2.7399978309582056 -1 2 1
2749 385 3 0.145 13.700703431791087 4.495403827833584 3.2048147229201414 -1 2 1
2754 385 2 0.418 12.591190348568004 3.0551831445086353 3.55787472325306 -1 2 1
4803 727 1 0.04 9.051793244902125 1.3068107294512687 21.120152359885942 -1 -1 0
5585 857 1 0.04 0.8959440329907467 4.545350662583574 19.9065585759499 3 -1 1
5765 887 1 0.04 14.198977968343279 5.668553371367104 14.233049287400517 1 2 1
5822 897 4 -0.6830000000000001 2.7592629639328212 13.244551090105784 21.117572531687404 2 2 1
2753 385 1 0.04 14.300500005659313 4.884601928957824 2.3541860911662424 -1 2 1
716 95 6 0.06 10.848692110392355 18.417197602408596 21.43551500879786 0 0 1
5784 890 2 0.418 6.530385243832006 9.940198078868738 1.208279603957298 1 0 0
5950 918 1 0.04 3.682104121731625 8.25905081084742 3.4475953442596254 1 0 1
5952 918 2 0.418 3.9662692157907227 9.119588277854788 1.2600862328413842 1 0 1
5948 918 4 -0.6830000000000001 3.1140624081439867 9.199240649350983 1.69829407823222 1 0 1
5947 918 3 0.145 3.1934071078592363 9.11292345378479 3.1200734728973996 1 0 1
3065 437 1 0.04 1.5217185654183 12.02369017906172 4.717092811393134 0 0 1
5951 918 1 0.04 3.7848833317691475 9.899448563274296 3.5503369063553407 1 0 1
5949 918 1 0.04 2.1963429238278147 9.035962722162562 3.5194441278876702 1 0 1
3063 437 1 0.04 2.85453773825519 12.709297549417117 4.014568927412604 0 0 1
3061 437 3 0.145 2.164029281851772 12.905743516310059 4.829028027175652 0 0 1
5197 793 3 0.145 10.766073630963586 21.581049677140182 10.180301742381097 0 1 0
1770 232 5 0.418 1.0932764710918725 2.48707452944386 20.047148043879066 2 1 -2
3064 437 1 0.04 2.6408081970262502 12.961346554622578 5.80646866594816 0 0 1
2563 354 3 0.145 2.123065569841598 2.244217189184824 5.912755555369522 -1 1 1
1752 229 7 0.06 14.221818783917596 12.773388680439584 8.679215353674557 -1 -1 0
1042 138 3 0.145 3.8934806941282076 15.039150406470728 9.46766870484969 1 0 1
5908 911 1 0.04 6.907955207847004 1.512016220931252 9.594206006929076 2 -1 0
457 61 7 0.06 2.7857355182927166 17.655083601376138 5.859170238694771 1 -1 1
5297 809 1 0.04 14.598539087759582 14.660347852130016 5.958655651714215 1 1 1
1641 216 5 0.418 6.8770535478314345 9.395659381809768 5.5687991188624615 0 0 0
387 53 5 0.418 6.834471977398721 10.83153707223619 3.521850798427003 0 -1 2
386 53 10 -0.6830000000000001 6.800312847498206 11.235405812345205 2.592472735314084 0 -1 2
1640 216 10 -0.6830000000000001 6.489709109203825 10.235636577407364 5.2626923526945335 0 0 0
1639 216 8 0.145 5.75132720285552 10.827419840289629 6.271267687101122 0 0 0
1642 216 6 0.06 6.076529905475183 10.372420757444488 7.203506010861619 0 0 0
838 111 1 0.04 10.077707573860165 9.81938077823248 6.283173288559818 -2 -1 -2
836 111 4 -0.6830000000000001 10.962800244862743 9.989164918484128 4.552441815124338 -2 -1 -2
835 111 3 0.145 9.852523720626811 10.281646622104551 5.285453782133593 -2 -1 -2
839 111 1 0.04 9.773486468916712 11.37799288180916 5.344575316076132 -2 -1 -2
837 111 1 0.04 8.879411555365865 9.858350296641774 4.985558683246522 -2 -1 -2
1643 216 6 0.06 4.702132507836559 10.588024486006255 6.131389304314525 0 0 0
1112 148 4 -0.6830000000000001 12.403055528673338 11.021300360134951 2.4483265156534855 1 0 3
840 111 2 0.418 11.117570318038164 9.028044809533402 4.727484146008937 -2 -1 -2
5089 775 3 0.145 10.253449167988347 17.736270222110512 3.2421086729976807 0 -4 2
6148 951 1 0.04 14.319429107831413 9.27129773115998 3.25048468992128 3 2 0
389 53 6 0.06 6.485731043059792 13.113008373949965 3.2573912799276457 0 -1 2
385 53 8 0.145 7.252442423170809 12.539877459866352 2.8317549250956935 0 -1 2
1111 148 3 0.145 13.052183894314057 12.193304910552628 2.842032749739522 1 0 3
6145 951 3 0.145 14.152062750264296 8.203781358052574 3.20238383739481 3 2 0
1115 148 1 0.04 13.553465164979244 12.006619396935658 3.8535374818423973 1 0 3
6149 951 1 0.04 13.640112561252307 8.022565211487109 2.292135142725229 3 2 0
1116 148 2 0.418 11.859238121005474 10.798945016947618 3.142071742742297 1 0 3
3218 463 4 -0.6830000000000001 7.693101104339271 21.599901738327063 14.704234317277969 -2 1 0
1114 148 1 0.04 12.39015254496107 13.06768993746927 2.8285954601418153 1 0 3
2994 425 2 0.418 13.82456494367682 1.771746833769444 19.913590346548368 -2 0 0
1113 148 1 0.04 13.742263363798672 12.383763281699114 2.012659900521011 1 0 3
1005 133 9 -0.18 12.756169905208102 14.480374573039327 20.285077306088727 0 -1 0
2663 370 1 0.04 3.460340340550238 13.577987025976846 1.4296330695806012 3 0 0
1645 216 7 0.06 5.738775915537186 12.673250108052326 5.331643007273184 0 0 0
3584 524 4 -0.6830000000000001 5.186965298361569 21.60132895160177 15.824960425271675 2 -1 -2
3062 437 4 -0.6830000000000001 1.2547406852731724 13.905269734359505 4.569815121290507 0 0 1
2703 377 1 0.04 5.671681077765917 15.098989488265524 5.132270174429145 0 0 -1
3518 513 4 -0.6830000000000001 7.544625141432275 21.715621907566575 9.401775300685614 0 0 2
2664 370 2 0.418 2.0990330224507705 14.736261038256616 3.024288914801331 3 0 0
2659 370 3 0.145 3.5919135987733757 14.545458771308459 1.8293078059137877 3 0 0
2660 370 4 -0.6830000000000001 2.366502339681724 15.177560359166154 2.198686450084963 3 0 0
2662 370 1 0.04 4.265944751025383 14.384107753605702 2.6700603068571227 3 0 0
455 61 6 0.06 1.792119899673492 19.161316144853412 4.203138831526074 1 -1 1
6340 983 1 0.04 7.624562069131239 19.75245714066099 18.881528955540908 1 -1 1
456 61 9 -0.18 3.417499545719582 18.064818870781707 5.090059708932695 1 -1 1
458 61 7 0.06 4.330503378532287 18.363020691283673 5.6190955677360135 1 -1 1
459 61 7 0.06 3.6178607415406425 17.381891383629505 4.305964020958767 1 -1 1
3519 513 1 0.04 6.970793845083657 19.961038880800377 10.23743026091584 0 0 2
1045 138 1 0.04 3.9384151883169456 14.575544536537022 10.40511268430112 1 0 1
1644 216 9 -0.18 6.138661076412603 12.244256555444892 6.2198737914879185 0 0 0
1646 216 7 0.06 7.229686372680384 12.33555233051966 6.403529545500475 0 0 0
2704 377 1 0.04 6.038887895551464 16.850224330925023 5.08155295469632 0 0 -1
2701 377 3 0.145 6.195336818101183 15.85483323852297 4.611515066788947 0 0 -1
1647 216 7 0.06 5.54893602143971 12.728889653451592 6.9553493108211875 0 0 0
2706 377 2 0.418 8.042787734693938 16.14919134665817 3.9858761951064703 0 0 -1
2702 377 4 -0.6830000000000001 7.5781898210462675 15.699873952517173 4.723141554662864 0 0 -1
4968 754 2 0.418 8.751163647913852 14.470994940612405 5.5517762585792365 0 -2 1
4963 754 3 0.145 10.765351206876966 14.47511973049406 5.229567052897343 0 -2 1
4964 754 4 -0.6830000000000001 9.53294075132837 13.951203787726277 5.776989683770619 0 -2 1
4659 703 1 0.04 11.586682107089013 21.717653631052038 4.697282391182716 0 1 0
5090 775 4 -0.6830000000000001 8.855637574043731 17.521448969884013 3.1088673450224436 0 -4 2
4965 754 1 0.04 11.113549388497452 15.250666688650073 5.845317455377452 0 -2 1
2303 310 1 0.04 12.157133767602112 16.94598372421499 8.198706757976005 0 3 3
5848 901 1 0.04 14.130846615912965 14.699816058734282 13.840448588731096 0 0 1
5782 890 1 0.04 6.926794571159542 7.164201315184165 2.0121799822082336 1 0 0
2526 347 2 0.418 13.86139824826484 17.763797496314215 5.638892561417908 0 -2 4
2522 347 4 -0.6830000000000001 12.992641138112884 18.09342345727771 5.366082305584299 0 -2 4
5824 897 1 0.04 3.0213436149078614 15.349858631122208 21.147325682969534 2 2 1
2521 347 3 0.145 13.25232423271263 19.029139524806943 4.3769074943159465 0 -2 4
5092 775 1 0.04 10.788315547890564 16.81843477653662 2.9398475766537366 0 -4 2
5359 820 3 0.145 13.229707514103271 1.8902401303055907 14.222722317607776 2 2 1
4493 675 1 0.04 1.316338746780278 3.1784480752837125 16.37039464396743 3 2 0
4662 703 2 0.418 8.937049255782343 21.456600714791684 5.912420795896851 0 1 0
713 95 10 -0.6830000000000001 10.16697246072723 19.65249063388868 20.029520856882232 0 0 1
2066 271 1 0.04 7.855470735408848 1.5038044724587243 14.825523385491799 -1 -1 2
3663 537 1 0.04 4.290023084221005 1.720333476731532 3.2297667744111274 -1 1 0
451 61 8 0.145 2.7546473813562153 19.368853543562725 4.621080641397457 1 -1 1
453 61 5 0.418 2.509952212406782 21.13729618228144 5.297131000639018 1 -1 1
452 61 10 -0.6830000000000001 2.5280839071175816 20.268924214128734 5.753355884501979 1 -1 1
4287 641 1 0.04 1.0323902438547234 8.19331892985089 10.58825955711701 -1 -1 -1
6419 996 1 0.04 8.671397059881865 18.702735718120298 6.769721960504077 0 -1 3
6415 996 3 0.145 7.695009003402876 19.132253124607104 7.017855755740926 0 -1 3
1750 229 7 0.06 14.212952037015716 12.111556389169477 10.33282370279432 -1 -1 0
2519 346 1 0.04 11.662043185175465 21.33475302966007 15.440036103504818 0 -3 0
5440 833 1 0.04 3.5129301876855665 1.1478441065864757 19.326747883320394 2 -1 1
671 89 1 0.04 2.431729506175179 9.79775542825599 21.079151955767568 0 0 0
1819 238 6 0.06 5.888590000105526 15.086279872091774 20.446950005226476 0 0 2
2705 377 1 0.04 5.722112401360972 15.825542572996847 3.6400522933325714 0 0 -1
2301 310 1 0.04 11.140003025396565 18.113604512031767 7.479700925309297 0 3 3
2107 278 3 0.145 6.908209886078372 20.51104999754861 2.9070070596909896 1 -1 0
2108 278 4 -0.6830000000000001 8.12108446325762 20.11399275658329 3.6182165247384908 1 -1 0
5094 775 2 0.418 8.365462009178948 18.36481768390828 3.282182720483232 0 -4 2
2524 347 1 0.04 14.178824640729967 18.854370553308804 3.806819699619832 0 -2 4
2112 278 2 0.418 8.404625504329623 20.925323369541903 4.014876158328947 1 -1 0
2110 278 1 0.04 6.136930691710211 20.843086104896802 3.618607557008024 1 -1 0
2992 425 1 0.04 14.766685797376914 4.404009951045255 19.57666287088652 -2 0 0
5093 775 1 0.04 10.518965752464565 18.605037693545505 2.6253060498391627 0 -4 2
1004 133 6 0.06 10.748749256222027 15.213801687639702 20.177036385667467 0 -1 0
1816 238 8 0.145 6.462633930105156 14.45666418960225 21.069137716234998 0 0 2
1946 255 6 0.06 3.0885763239193653 3.457297303920799 8.417993293710385 1 0 0
1945 255 6 0.06 3.3512780827513238 4.922106844336199 9.170965548470239 1 0 0
1942 255 8 0.145 3.839970859432249 4.038400093587332 8.8438570842267 1 0 0
1944 255 5 0.418 4.6763510985319385 2.4387242054040543 9.498139682991113 1 0 0
1943 255 10 -0.6830000000000001 4.487186693940368 3.336403013603835 9.83092138852919 1 0 0
1949 255 7 0.06 5.715968720761341 4.991455605935288 7.9926874576688185 1 0 0
1947 255 9 -0.18 4.903823230009526 4.334473902472403 7.733866437384399 1 0 0
1948 255 7 0.06 5.328959357804204 3.4275364874274845 7.350781586921658 1 0 0
4870 738 1 0.04 3.023593751289262 3.6301832729601813 13.061423416009367 0 -1 1
4356 652 2 0.418 4.646037308283041 4.433459129027628 11.404292071238674 1 -1 0
4872 738 2 0.418 3.522031025072319 1.390387392806656 14.190528261734809 0 -1 1
1950 255 7 0.06 4.476952407892627 4.93893053407519 6.918147853035469 1 0 0
4867 738 3 0.145 3.0252185474945987 2.6381926638815383 12.826992133163246 0 -1 1
5825 897 1 0.04 1.3491048694111218 14.706245009525356 20.666414179958092 2 2 1
4352 652 4 -0.6830000000000001 4.811498698664105 5.12326194304277 12.071672532924937 1 -1 0
6262 970 1 0.04 14.484828816130705 17.73965592361638 8.625156962179782 0 2 1
1576 208 6 0.06 14.092298787126305 11.246970309863578 13.79142389311795 -1 1 0
4869 738 1 0.04 2.3049829320293425 2.366410908777378 12.040546988185756 0 -1 1
1182 157 2 0.418 14.718676664127488 21.408890958524232 21.4106934628147 0 2 -3
1865 245 10 -0.6830000000000001 4.035116621991842 19.603849778484754 21.58336009330187 1 1 0
3317 479 1 0.04 13.606465108351884 18.171990430215743 17.33960554947376 0 1 1
2111 278 1 0.04 7.148033338284818 21.355577063637305 2.2443818120824472 1 -1 0
3727 548 3 0.145 8.429693909911247 3.447239581913892 7.482545760120915 1 1 1
3729 548 1 0.04 8.109203681635904 4.52241927312406 7.521074897734182 1 1 1
3731 548 1 0.04 7.795234978986423 2.836868862606794 8.071158628092547 1 1 1
3732 548 2 0.418 10.103233237617342 2.6039643275253685 7.946244919743772 1 1 1
4354 652 1 0.04 6.395900707799926 6.155702706994841 12.808239886388563 1 -1 0
4351 652 3 0.145 6.2612837836233775 5.207950142013071 12.300035239718259 1 -1 0
4539 683 1 0.04 11.308619920329294 5.604445482144807 6.520047574835759 1 1 0
898 119 7 0.06 11.958564026520481 3.300601580517407 10.001002601869903 0 1 2
1044 138 1 0.04 3.8224142345155463 16.17879600261586 9.510927418616218 1 0 1
3730 548 1 0.04 8.421386733732145 3.063270710920389 6.447677889337597 1 1 1
1550 204 1 0.04 9.935907826874727 2.592843224405165 11.251759099142188 0 3 -2
3728 548 4 -0.6830000000000001 9.74818211039764 3.498254605494691 7.9535562472489145 1 1 1
4541 683 1 0.04 12.109227146940313 7.04506432912251 7.214176994833339 1 1 0
892 119 8 0.145 12.943601118513033 4.958502407363948 10.99277977806984 0 1 2
899 119 7 0.06 13.359559663791682 3.9260472126824486 9.114174073977132 0 1 2
897 119 9 -0.18 12.525380383135268 4.225085888366852 9.747056710512116 0 1 2
900 119 7 0.06 11.773872300780905 4.816768128424366 9.179053610473336 0 1 2
893 119 10 -0.6830000000000001 11.713212313938092 5.237866686877554 11.69143287456529 0 1 2
894 119 5 0.418 11.609573897991252 6.172738333074252 11.763139705775115 0 1 2
896 119 6 0.06 13.504297484200151 5.906816461496861 10.78997274840008 0 1 2
1414 187 6 0.06 4.830782560574053 8.405112121235046 13.053755197190963 1 0 -1
4821 730 1 0.04 5.8229848364515115 7.273266761373142 6.848220669307886 2 1 -3
4819 730 3 0.145 6.334501233907733 7.104953312812868 5.9637878746783946 2 1 -3
4823 730 1 0.04 6.437373388478044 5.972350147689895 5.99194801079253 2 1 -3
4822 730 1 0.04 5.86660743663335 7.544772093352222 5.117166307225241 2 1 -3
4820 730 4 -0.6830000000000001 7.640992622469254 7.636930206689249 6.184738363193082 2 1 -3
3332 482 4 -0.6830000000000001 3.042472812814699 11.857957028847975 8.046632521700465 1 1 -1
3333 482 1 0.04 2.3266045157971353 11.090630010582093 9.713366510306269 1 1 -1
4355 652 1 0.04 6.622584660184043 4.425888235131399 12.967998794975795 1 -1 0
2169 288 1 0.04 10.011469149109697 14.266575406606238 12.618755136373004 -1 3 1
4824 730 2 0.418 7.828160590423115 7.742798005965483 7.1658310295005805 2 1 -3
2975 422 1 0.04 9.452598576714253 6.790602382311566 10.444194038925428 2 1 0
2972 422 4 -0.6830000000000001 8.604759356955853 7.832687260548236 8.771820363198504 2 1 0
2976 422 2 0.418 9.368911353736262 8.506193030542025 8.854583041543876 2 1 0
2973 422 1 0.04 8.511058795025503 5.90140385873819 9.367954738677339 2 1 0
2971 422 3 0.145 9.257467226938882 6.676192809663131 9.371342312252327 2 1 0
2974 422 1 0.04 10.19839955958382 6.5761432153436035 8.808912076107468 2 1 0
5740 883 1 0.04 12.428819929605934 9.39705953200753 9.628561044080959 1 1 0
1779 233 1 0.04 9.598364487684659 9.407333463586768 12.924727173601083 0 1 -2
1780 233 1 0.04 8.40398059085329 8.35289887732949 12.14694107078951 0 1 -2
1781 233 1 0.04 8.479556325230662 10.006513134815323 11.661201051404005 0 1 -2
1777 233 3 0.145 8.533290649526581 9.348147498649285 12.521843054221387 0 1 -2
1778 233 4 -0.6830000000000001 7.48935077472086 9.59841287103231 13.509521209789577 0 1 -2
3313 479 3 0.145 12.915387817839196 18.73263951401277 18.021836085161407 0 1 1
5737 883 3 0.145 13.005903987108917 8.540630732714508 9.88366164715217 1 1 0
5739 883 1 0.04 12.895384376673723 7.869376715812835 9.093027581302092 1 1 0
5741 883 1 0.04 13.996164208084721 8.93576738895576 9.94872723402414 1 1 0
1575 208 5 0.418 11.967157435736667 11.265810298166178 12.917183284985686 -1 1 0
5742 883 2 0.418 12.387731127368069 8.939099324371028 11.665478895376108 1 1 0
5738 883 4 -0.6830000000000001 12.314230655702683 8.193387108786997 11.10271170683215 1 1 0
1574 208 10 -0.6830000000000001 12.556097334668742 10.530901825030089 12.555178149605684 -1 1 0
4660 703 1 0.04 11.230665011065575 21.344015740298385 6.304427086881599 0 1 0
6147 951 1 0.04 13.455397615494208 7.916341086874249 3.9925610501764193 3 2 0
5360 820 4 -0.6830000000000001 12.46674918923574 1.1152790447325969 13.361652371773312 2 2 1
1047 138 2 0.418 2.755977435236869 14.844339908662505 7.743413932861876 1 0 1
1043 138 4 -0.6830000000000001 2.692670725891433 14.513050334905339 8.642420079109243 1 0 1
3336 482 2 0.418 2.6549110535987204 12.704244472989238 8.176370378395827 1 1 -1
3490 508 1 0.04 5.736742312530237 16.69858611814984 12.282690639443816 -1 -4 2
3331 482 3 0.145 3.2521460803675954 11.413409282873566 9.33293454221175 1 1 -1
3335 482 1 0.04 3.629337491417994 12.112201826953848 10.066257775631676 1 1 -1
3487 508 3 0.145 5.625052024119188 17.69247040063828 11.832884785222745 -1 -4 2
3489 508 1 0.04 6.172530371852619 17.628437530933255 10.896501293322622 -1 -4 2
3334 482 1 0.04 4.007298143879968 10.586213407178011 9.386267936845341 1 1 -1
3491 508 1 0.04 4.5942726709004695 17.849403706096318 11.527786613993424 -1 -4 2
3686 541 4 -0.6830000000000001 0.7379619030839208 6.332155757503619 14.152688901864147 0 1 1
815 108 6 0.06 3.1367639040443023 14.694305057609167 13.292446483305541 0 1 0
322 43 7 0.06 7.18973183601322 11.61561665781712 10.039522321542243 -2 -1 1
2171 288 1 0.04 11.235721052829929 13.367327326446588 11.657024420146875 -1 3 1
4966 754 1 0.04 11.480146278455894 13.601513949524149 5.062324858179165 0 -2 1
4967 754 1 0.04 10.555832178327453 14.883471732382672 4.232858315438392 0 -2 1
2172 288 2 0.418 9.980041940284767 12.354423159416477 13.80988731153369 -1 3 1
2167 288 3 0.145 10.933339145135331 13.651546412772065 12.699651520743982 -1 3 1
2168 288 4 -0.6830000000000001 10.898353941832772 12.413750928298201 13.458431265379366 -1 3 1
2273 305 1 0.04 6.705441589223721 15.896606874865846 7.293871426599695 -1 0 0
2274 305 2 0.418 8.678512934350533 16.446498498671488 9.331671146538548 -1 0 0
2270 305 4 -0.6830000000000001 7.773135346288275 16.33075051920374 9.083369732565886 -1 0 0
2271 305 1 0.04 8.511234257915191 16.151397545428665 7.188116616173719 -1 0 0
2269 305 3 0.145 7.681096312372759 15.690762606297985 7.758551166468375 -1 0 0
2272 305 1 0.04 7.7894657949705195 14.623697986216033 7.852565204819513 -1 0 0
5250 801 2 0.418 11.347412252939257 16.38323931751033 10.140369903671052 2 0 -1
319 43 6 0.06 7.956248410172028 12.225527957353206 12.40394771276731 -2 -1 1
321 43 9 -0.18 6.789546943042516 12.49034483500371 10.501518362927161 -2 -1 1
3521 513 1 0.04 5.7348694550019585 20.642472598788245 9.400627186325979 0 0 2
5249 801 1 0.04 13.512510964946147 15.537272686981414 9.69040561835523 2 0 -1
5246 801 4 -0.6830000000000001 11.653845465226214 15.663230137923565 10.760215207358156 2 0 -1
5247 801 1 0.04 12.978632405344896 14.073215075510296 10.53790023561786 2 0 -1
5248 801 1 0.04 12.083125840489213 14.490698387585393 9.092195369049477 2 0 -1
5245 801 3 0.145 12.615230862695533 14.896742509816162 10.006144005325405 2 0 -1
3797 559 1 0.04 3.368624454491105 18.416989339913457 8.69549739071902 2 1 3
1180 157 1 0.04 12.39554659610473 21.482881399837357 21.233077512526204 0 2 -3
6417 996 1 0.04 7.468264365956835 18.819807626710396 8.010616262659639 0 -1 3
6418 996 1 0.04 6.894500618616719 18.746660704223828 6.368627095889798 0 -1 3
3796 559 1 0.04 1.6170564792605813 18.249695916286786 8.334273255056335 2 1 3
3793 559 3 0.145 2.414851790088531 18.843901107379907 8.830126263632032 2 1 3
3520 513 1 0.04 6.190646047988761 21.448408370891283 11.082884526158322 0 0 2
3794 559 4 -0.6830000000000001 2.2909044269746275 20.167460227005556 8.364615460146622 2 1 3
3798 559 2 0.418 2.4718321285538463 20.123298474465724 7.393396171326736 2 1 3
3517 513 3 0.145 6.52412363410214 20.953755630648537 10.087021051413716 0 0 2
3488 508 4 -0.6830000000000001 6.164204419604713 18.713673526041323 12.704345092741837 -1 -4 2
5198 793 4 -0.6830000000000001 9.927296920602645 20.583555105962077 9.674380775283002 0 1 0
2302 310 1 0.04 12.46090821517854 18.671142289061205 8.430762081326954 0 3 3
2299 310 3 0.145 11.746685363126081 17.938361235850774 8.37088652056568 0 3 3
2300 310 4 -0.6830000000000001 10.95567197385407 17.984207083227904 9.55385175384664 0 3 3
2566 354 1 0.04 1.9312896573962737 1.8193797376640757 4.953649732936017 -1 1 1
2304 310 2 0.418 10.543774043003356 18.894808217981964 9.582259009633024 0 3 3
6416 996 4 -0.6830000000000001 7.809645042359274 20.55747154673557 6.933875592846808 0 -1 3
5091 775 1 0.04 10.411240776475227 18.02117469994987 4.346277077705533 0 -4 2
5202 793 2 0.418 9.026904528272745 20.938359145289667 9.455289653061477 0 1 0
3259 470 3 0.145 13.57473758912742 19.20148132948861 11.546502550065384 -1 0 0
5157 786 1 0.04 1.7658037911449027 11.879798072471237 1.5723630902532073 1 0 1
712 95 8 0.145 10.061706120632115 19.12412855865447 21.30400488024356 0 0 1
3262 470 1 0.04 12.765325535152344 18.867829672769233 12.178599446003638 -1 0 0
3261 470 1 0.04 13.435713604682931 18.791769487834625 10.548764136294144 -1 0 0
4661 703 1 0.04 10.682365775233361 20.35023628935015 4.947073143907893 0 1 0
1107 147 1 0.04 14.444534316206884 11.026269474387806 6.65853567461081 0 2 1
4868 738 4 -0.6830000000000001 2.7727333510882115 1.9541366882212763 14.03163752719458 0 -1 1
3118 446 1 0.04 12.318685541781974 8.116573793291098 20.942046794620968 -1 1 3
5830 898 1 0.04 10.784799408994346 12.185602221232408 21.347565856003868 1 -2 0
5827 898 3 0.145 9.724747458113322 12.421537190487097 21.015759082719082 1 -2 0
719 95 7 0.06 7.8696488108571945 18.966279851337223 21.280637637194257 0 0 1
5442 833 2 0.418 5.269217230875563 1.6071537739915454 17.97930935943017 2 -1 1
3690 541 2 0.418 1.6632340227403486 6.55585231464875 13.898797561333925 0 1 1
1413 187 5 0.418 3.878183019042642 6.354995802810767 13.058121161683525 1 0 -1
3669 538 1 0.04 2.4866089915411616 6.955055737150441 19.203672794340978 0 1 0
1412 187 10 -0.6830000000000001 3.539792428686163 6.877701244789109 13.840951269361394 1 0 -1
4906 744 1 0.04 4.775247595859935 5.223872629966644 15.020105194058967 -1 -2 -2
4903 744 3 0.145 4.5783412801394325 4.5163101199389235 15.828285001624382 -1 -2 -2
4908 744 2 0.418 5.065309490578062 2.657871579481305 16.23265191071438 -1 -2 -2
4904 744 4 -0.6830000000000001 5.438888161392374 3.403023173465542 15.74376140673803 -1 -2 -2
454 61 6 0.06 3.394309798052542 19.91169644509463 3.9040980779285372 1 -1 1
136 19 7 0.06 1.792376835127867 9.78221145392155 17.381517159801046 -1 0 2
5364 820 2 0.418 11.677949716444228 1.6397396133407365 13.111667425961302 2 2 1
4353 652 1 0.04 6.774132378039094 5.092162675880805 11.418420209992918 1 -1 0
5271 805 1 0.04 11.840554645874185 5.673430412099643 17.243962712139854 1 -1 1
5270 805 4 -0.6830000000000001 11.991488624383527 3.6563073033199003 17.704939669915674 1 -1 1
1548 204 1 0.04 8.65845350408802 2.450156542193795 12.538213540851393 0 3 -2
4907 744 1 0.04 3.509363220042551 4.3629536719938535 15.808909834382833 -1 -2 -2
4905 744 1 0.04 4.742200791859889 5.112796545992035 16.77074710575168 -1 -2 -2
1551 204 2 0.418 11.120114369372939 3.8259550235188793 12.673105147494033 0 3 -2
1547 204 4 -0.6830000000000001 10.532563040314377 3.0966334292335858 12.988351642720374 0 3 -2
1546 204 3 0.145 9.478009043176785 2.9987962705262534 12.156266715807291 0 3 -2
1549 204 1 0.04 9.138755667373513 4.067524144512071 11.807553433787891 0 3 -2
4215 629 1 0.04 8.897712235182178 3.633953302980556 16.70368848865693 -1 -1 0
4216 629 1 0.04 8.693865584031256 1.8541283316192385 16.8012241098297 -1 -1 0
4213 629 3 0.145 8.641166177591696 2.7839082379290483 17.378120109073873 -1 -1 0
1632 214 7 0.06 9.758697517537051 5.403005417864819 14.812897069924302 -1 1 0
1631 214 7 0.06 9.090592473596349 6.573634309607954 13.769030656403523 -1 1 0
5269 805 3 0.145 12.499128575258279 4.853495533992284 17.181265005607766 1 -1 1
1008 133 7 0.06 13.075930599031452 14.723700199628158 19.27410887388102 0 -1 0
434 58 7 0.06 6.728365938911013 5.024084125507123 18.54654543316792 1 2 1
5272 805 1 0.04 13.432593434665257 5.041298187158638 17.701048605573103 1 -1 1
895 119 6 0.06 13.547526756917579 4.28178783031341 11.684040677926816 0 1 2
5363 820 1 0.04 12.981371787523258 1.9303112268673548 15.243245499283011 2 2 1
5273 805 1 0.04 12.738977410041777 4.591610015795975 16.137312337593734 1 -1 1
2567 354 1 0.04 3.118983540910643 2.4376101202314935 6.153750868570714 -1 1 1
1415 187 6 0.06 5.040597576292954 8.098310843116636 14.692829671707363 1 0 -1
3672 538 2 0.418 3.5401231129914206 6.631282031246551 16.657542731185778 0 1 0
3667 538 3 0.145 2.905893307066641 6.451749711025991 18.360971809088618 0 1 0
3668 538 4 -0.6830000000000001 3.30194025045172 7.267866831189763 17.35072343131576 0 1 0
3671 538 1 0.04 3.7240324465542507 5.917349241645937 18.857531382045686 0 1 0
1417 187 7 0.06 2.7029742755498316 9.80100982553839 13.453955295970594 1 0 -1
1418 187 7 0.06 3.9055871799461217 10.147860354848051 14.685153673700079 1 0 -1
1416 187 9 -0.18 3.3117978859129904 9.388924549314659 14.264114528291778 1 0 -1
1411 187 8 0.145 4.232980503961413 8.181277633942546 13.94452495567402 1 0 -1
1419 187 7 0.06 2.6045180254844764 9.085286776006217 15.066717756187542 1 0 -1
951 126 5 0.418 4.581056309298697 8.269048036297502 17.387036397140232 0 2 1
953 126 6 0.06 6.242777644464421 10.542000608155176 17.58694708995942 0 2 1
317 43 10 -0.6830000000000001 5.973857462377008 11.51187179942829 12.53441297972061 -2 -1 1
950 126 10 -0.6830000000000001 5.4891221193547395 8.719738980574437 17.326602029871065 0 2 1
318 43 5 0.418 6.397977238150817 10.721765183054098 12.81106598572922 -2 -1 1
5200 793 1 0.04 10.529226282031166 21.68650331934675 11.233859891882373 0 1 0
1630 214 7 0.06 10.421924756944126 7.133241255452406 14.714473380278788 -1 1 0
1628 214 6 0.06 9.238240617119544 6.786801403816956 16.833635092701417 -1 1 0
430 58 6 0.06 8.983605542005789 6.109573740522002 18.904887316438796 1 2 1
952 126 6 0.06 4.611787404776052 10.332322890843486 17.81621781054485 0 2 1
949 126 8 0.145 5.4863046080112845 9.8870113615559 18.08693278357693 0 2 1
1627 214 6 0.06 7.885517218347403 5.971464036497456 15.80161793747978 -1 1 0
954 126 9 -0.18 5.797025246050006 9.855003946307486 19.54871189369463 0 2 1
956 126 7 0.06 4.954877240061086 9.549605069158952 20.11032948527453 0 2 1
1624 214 8 0.145 8.604671131296826 6.847718929251474 15.85783237625102 -1 1 0
1629 214 9 -0.18 9.530343712930929 6.487113032429709 14.731089664189332 -1 1 0
1625 214 10 -0.6830000000000001 8.025802700888821 8.109083912759829 15.782429961742002 -1 1 0