LAMMPS data file via write_data, version 29 Aug 2024, timestep = 1000000, units = real

6687 atoms
10 atom types
5687 bonds
8 bond types
8374 angles
10 angle types
5519 dihedrals
7 dihedral types

0.42408347584821016 43.182566524128646 xlo xhi
0.7603535857003827 42.78134641429363 ylo yhi
0.8547570837111351 42.388052916284146 zlo zhi

Masses

1 1.008
2 1.008
3 12.011
4 15.999
5 1.008
6 1.008
7 1.008
8 12.011
9 12.011
10 15.999

Pair Coeffs # lj/cut/coul/long

1 0.03 2.5
2 0 0.5
3 0.066 3.5
4 0.17 3.12
5 0 0.4
6 0.03 2.5
7 0.03 2.5
8 0.066 3.5
9 0.066 3.5
10 0.17 3.12

Bond Coeffs # harmonic

1 340 1.09
2 320 1.41
3 553 0.96
4 268 1.529
5 340 1.09
6 340 1.09
7 320 1.41
8 553 0.96

Angle Coeffs # harmonic

1 55 108.5
2 33 107.8
3 35 109.5
4 55 108.5
5 37.5 110.7
6 33 107.8
7 37.5 110.7
8 33 107.8
9 50 109.5
10 35 109.5

Dihedral Coeffs # opls

1 0 0 0.45 0
2 -0.356 -0.174 0.492 0
3 0 0 0 0
4 0 0 0 0
5 0 0 0.318 0
6 0 0 0.45 0
7 0 0 0.468 0

Atoms # full

6261 929 2 0.418 3.833350261530607 3.1715043979151343 7.2545372757785005 1 0 0
6258 929 1 0.04 5.523522270057357 4.872219832685189 7.125480552139353 1 0 0
6259 929 1 0.04 5.9995929570674225 4.094383367734532 5.655772453388337 1 0 0
3220 426 3 0.145 5.007381980158783 8.101255578435687 5.50278424227923 0 1 1
3225 426 2 0.418 5.5397143433860805 8.270069813269885 7.360999078508506 0 1 1
2664 353 5 0.418 2.8686984395361823 3.9269013865427027 1.1576357638720378 1 2 1
2367 313 5 0.418 7.1460066426723055 8.911081712184254 5.7752542272359895 0 0 0
6257 929 4 -0.6830000000000001 4.69216503104601 3.0418687488318463 6.800237539769203 1 0 0
6256 929 3 0.145 5.09729250723136 4.275848726219045 6.310516290896817 1 0 0
2368 313 6 0.06 8.975103585034097 8.905403653213419 7.116246445459881 0 0 0
5784 850 1 0.04 6.874545956500291 8.390379431035566 3.1394279633776865 -1 -1 -2
2365 313 8 0.145 8.654064172809198 9.801447507783127 6.530128561309851 0 0 0
3223 426 1 0.04 4.167566905788286 7.514658728283476 5.790126651234376 0 1 1
3221 426 4 -0.6830000000000001 5.950022199424111 7.819961521348672 6.535742377271381 0 1 1
3222 426 1 0.04 5.361031460605218 7.694876731321693 4.544906673277913 0 1 1
6642 993 1 0.04 8.294635214970373 4.5814475613598455 5.3832260401881555 1 0 0
5786 850 1 0.04 8.52202270313607 8.110779170355151 2.899041139483991 -1 -1 -2
3224 426 1 0.04 4.657800054218795 9.102239886290667 5.293449301981203 0 1 1
5355 778 2 0.418 4.399029996421307 2.5999999143092225 3.3820097267450078 0 1 0
5445 793 2 0.418 4.333252895907515 1.6302315008213166 5.533140735824023 -1 1 0
1506 197 2 0.418 1.5038382490357975 3.737269685905664 8.123957674559563 -1 1 0
5351 778 4 -0.6830000000000001 4.1531883817273325 3.2731905111662702 2.743071543722351 0 1 0
6641 993 4 -0.6830000000000001 9.983841308844232 5.469256933641969 5.103173484749764 1 0 0
5782 850 3 0.145 7.589720383507218 7.587250147397434 2.970779064555676 -1 -1 -2
6640 993 3 0.145 8.990975976450342 5.109330678952191 6.044352074431579 1 0 0
6260 929 1 0.04 4.323303305302636 4.789225065975404 5.733895852760028 1 0 0
5194 752 3 0.145 10.134654487478066 10.049177687618103 1.729080792456226 2 1 -1
5441 793 4 -0.6830000000000001 3.820380251982563 1.2262789661677314 4.739451480521941 -1 1 0
5337 775 2 0.418 4.007176995531123 6.6244917656671625 11.608810541358613 2 -2 0
4370 614 1 0.04 6.667607329719493 11.191631808963127 2.1793389752739682 0 -1 1
5785 850 1 0.04 7.461846104721454 6.91774842406342 3.8849902443034496 -1 -1 -2
965 128 4 -0.6830000000000001 1.6345364538410176 9.23907978470906 4.702595706340665 0 2 4
5787 850 2 0.418 8.000690214058466 6.124923642895984 1.8148141547258414 -1 -1 -2
3546 477 1 0.04 2.4634443038780534 5.829061824049124 4.899508976659426 0 2 0
5440 793 3 0.145 2.457541766449696 1.2546759390744278 5.156632097635112 -1 1 0
3544 477 3 0.145 2.2748989132556785 6.115780055312003 3.8071437241045905 0 2 0
4683 666 2 0.418 0.4715001687582909 4.66489350958774 14.417452411206963 1 -1 0
6643 993 1 0.04 9.450126800402465 4.359841094686459 6.713589831641415 1 0 0
3805 520 1 0.04 7.430057904867481 2.260024102545197 3.8707489739812244 -3 -1 0
5354 778 1 0.04 5.711988563562009 2.736223704162616 1.5303218318493426 0 1 0
3804 520 1 0.04 8.399650912628873 2.266786447404879 5.3071077332605405 -3 -1 0
3995 552 4 -0.6830000000000001 9.053223167438913 5.001993598823871 2.3395227835577384 -1 2 1
3131 413 7 0.06 8.666305617001397 1.8237348023904407 8.843388562622707 0 1 -2
2345 310 7 0.06 10.800864578775515 9.144716027542758 9.276770221411518 -1 1 1
2341 310 6 0.06 10.31072418521203 9.306617682675219 11.726010894737788 -1 1 1
5350 778 3 0.145 5.265487332321342 3.6323447514193585 2.002156419438707 0 1 0
3999 552 2 0.418 9.318964914903136 5.362070703983717 3.2551924092588638 -1 2 1
3997 552 1 0.04 9.627384771128147 3.4528437727412076 1.0800835144318797 -1 2 1
3994 552 3 0.145 9.816372560164968 3.817048013315216 2.1009139818494176 -1 2 1
5352 778 1 0.04 5.02323166964169 4.362553941759321 1.2670324392524002 0 1 0
3996 552 1 0.04 9.37472197661935 3.045037755004775 2.751923900505675 -1 2 1
5353 778 1 0.04 6.059260536823668 4.077097665409314 2.6912044750532305 0 1 0
6644 993 1 0.04 8.54631582322644 5.962853290547198 6.568194030022729 1 0 0
3548 477 1 0.04 2.659590672592334 5.268770618112535 3.1922723320334634 0 2 0
1120 149 7 0.06 5.668614337433492 0.9855814159289228 11.832513011283297 2 1 -1
2366 313 10 -0.6830000000000001 7.8327075679999 9.488742585113274 5.419358331093814 0 0 0
3130 413 7 0.06 8.208234637029525 1.4092457715303386 10.360402167109013 0 1 -2
3549 477 2 0.418 2.9827540022233263 7.271920354229701 2.3097428385518946 0 2 0
2370 313 9 -0.18 9.748980953643322 10.513265062193915 5.7951784689494374 0 0 0
3547 477 1 0.04 1.2339152777823221 6.212133932999563 3.6917219650474036 0 2 0
3545 477 4 -0.6830000000000001 2.9320747875956803 7.268420241551286 3.30029074846742 0 2 0
3802 520 3 0.145 7.647884361083835 1.68913929158101 4.78483145744552 -3 -1 0
969 128 2 0.418 2.211778679085308 8.483766799853862 4.419776081136947 0 2 4
2338 310 8 0.145 10.583890642601105 10.154532354707355 11.157888494323792 -1 1 1
6194 918 1 0.04 5.261564266430717 4.827586432534393 14.184498024577948 1 -1 0
3806 520 1 0.04 6.765443315089013 1.630714353297241 5.349578369420077 -3 -1 0
1119 149 9 -0.18 4.6374195713197315 0.844284895386787 12.187141383737732 2 1 -1
5196 752 1 0.04 10.376769322563279 9.278418522070712 2.530136897117645 2 1 -1
3128 413 6 0.06 5.731128356598206 1.9223184509291753 9.467703703643231 0 1 -2
3127 413 6 0.06 6.701205343573381 2.6370635969361453 8.140247172749282 0 1 -2
4248 594 1 0.04 6.985753576674754 8.759363759161088 11.390323130691398 0 1 1
4249 594 1 0.04 8.09666589245939 9.061861611255681 12.637830167981361 0 1 1
2372 313 7 0.06 10.602001372522496 10.526179113170226 6.489811413312352 0 0 0
1502 197 4 -0.6830000000000001 2.1976346645153577 2.985335533675505 8.129384752884558 -1 1 0
3153 416 5 0.418 2.215093721019094 10.718343508772577 3.785741235466109 1 0 0
5444 793 1 0.04 2.2405037599681674 2.334733553547678 5.31455286187329 -1 1 0
5336 775 1 0.04 5.469318635114762 5.177286153553845 10.818096373825071 2 -2 0
3106 410 7 0.06 1.1289310190120903 5.367886574674648 10.463780215335651 1 0 1
1115 149 10 -0.6830000000000001 4.973584313208621 1.8669860849624775 14.434965998205723 2 1 -1
5845 860 1 0.04 9.470760547103822 3.9892690999954503 12.38132016756075 2 0 1
4251 594 2 0.418 7.440380460532633 11.006363326618327 11.565617645244032 0 1 1
6152 911 1 0.04 7.815049211348594 6.674168295411049 9.960322657163115 2 0 2
3129 413 9 -0.18 7.862656891445377 1.4889520289113756 9.350559672442849 0 1 -2
1503 197 1 0.04 2.575142277387113 3.2245955757308784 10.065740980130723 -1 1 0
2665 353 6 0.06 1.9804999918077535 1.6614643369715862 1.3337112405737201 1 2 1
1504 197 1 0.04 1.3084925844389943 2.070998965579313 9.62135998337877 -1 1 0
2369 313 6 0.06 8.13509416222145 10.560357705163483 7.147141440453392 0 0 0
1501 197 3 0.145 2.321735685051146 2.4373382401949844 9.36858716051085 -1 1 0
964 128 3 0.145 1.1417207636410915 8.849712169534149 5.971212048304851 0 2 4
4250 594 1 0.04 6.404967105104966 8.835355735018615 12.943165471939915 0 1 1
4247 594 4 -0.6830000000000001 6.796772106892257 10.698669873557513 12.226582815176284 0 1 1
5847 860 2 0.418 7.140161944292885 2.3771075012624863 13.14994594365574 2 0 1
4246 594 3 0.145 7.128629172934501 9.310236893016935 12.335316900760674 0 1 1
6149 911 4 -0.6830000000000001 9.358740321777887 5.64937013391439 9.362665482010055 2 0 2
5843 860 4 -0.6830000000000001 7.633964015396865 2.976313063424468 12.566303501250083 2 0 1
5846 860 1 0.04 8.63624835698382 4.158268271666181 13.918352802638516 2 0 1
5333 775 4 -0.6830000000000001 4.235324556522897 6.85827769742709 10.686679031461264 2 -2 0
5844 860 1 0.04 9.382699433111906 2.68294608882219 13.68513821760417 2 0 1
6584 983 1 0.04 1.5041173452060348 10.545249006960065 8.42719979432848 1 1 1
6582 983 1 0.04 3.1715905020871835 11.122282069984553 9.182282914749065 1 1 1
1505 197 1 0.04 3.0891668023948666 1.6886549833002387 9.529238639926133 -1 1 0
967 128 1 0.04 1.966443756752056 8.924847497637591 6.58349836986333 0 2 4
3124 413 8 0.145 6.711660671636263 2.4020752110801213 9.180836749977688 0 1 -2
5842 860 3 0.145 8.801866204758282 3.497366198687316 13.13548797759711 2 0 1
1093 145 1 0.04 7.77525065924883 6.2157570636903 14.018818407984503 0 1 0
6645 993 2 0.418 10.782570614546366 5.774400838454945 5.58614883012545 1 0 0
4682 666 1 0.04 0.6005529860030212 7.505319085460499 13.97919662062723 1 -1 0
4368 614 1 0.04 5.833130058144727 10.797724120343666 3.596547083210226 0 -1 1
4337 609 4 -0.6830000000000001 4.370418881202269 8.729925438595494 8.731464761926988 2 2 0
4341 609 2 0.418 4.274030793831701 8.006548435750727 9.355557968643009 2 2 0
6191 918 4 -0.6830000000000001 3.472968754174107 5.833004204860681 13.322384159693012 1 -1 0
6148 911 3 0.145 8.856836913082818 6.672514306078744 10.24101725565096 2 0 2
4338 609 1 0.04 4.8206873442860045 9.95838221803641 10.360310051738535 2 2 0
6150 911 1 0.04 8.864580400214116 6.400246521199098 11.320299135088538 2 0 2
6580 983 3 0.145 2.0681328781731145 10.948931570415583 9.348107022378601 1 1 1
3126 413 5 0.418 7.4248812883874065 3.4311742316918084 10.665455051779643 0 1 -2
4336 609 3 0.145 5.254338379073746 9.703556391986858 9.322863687247679 2 2 0
3213 424 2 0.418 0.5048959127753698 11.158781927863355 13.166014469255906 4 -2 0
3998 552 1 0.04 10.837116265936787 3.942500976920462 2.2828799160703874 -1 2 1
4339 609 1 0.04 6.256985770097354 9.279040158724907 9.348090279867694 2 2 0
3125 413 10 -0.6830000000000001 7.016760837498683 3.60973022582382 9.821149413143948 0 1 -2
5335 775 1 0.04 5.303739439349858 5.977609551603273 9.182984570026518 2 -2 0
5334 775 1 0.04 3.9683213664298593 5.042853802234964 9.837984223136688 2 -2 0
4371 614 2 0.418 7.646479273469133 11.047254886471402 4.593869761303023 0 -1 1
2339 310 10 -0.6830000000000001 9.456555914649774 10.901204498505278 10.714140712946923 -1 1 1
6190 918 3 0.145 4.265565128842005 5.294380226465177 14.454122179064953 1 -1 0
5783 850 4 -0.6830000000000001 7.253691106922786 6.833150793645926 1.8471434291783724 -1 -1 -2
6195 918 2 0.418 2.5139461520212363 5.663270420347109 13.637568840223285 1 -1 0
6151 911 1 0.04 9.28167750218685 7.657966700853341 10.021512372614147 2 0 2
6583 983 1 0.04 1.9596933450607428 10.147841286538517 10.082778296059693 1 1 1
5332 775 3 0.145 4.815955274952177 5.7349047852892765 10.096986456251605 2 -2 0
6153 911 2 0.418 8.780722322317015 4.903932001307566 9.493841888864214 2 0 2
4340 609 1 0.04 5.236440464875161 10.626989977109705 8.754866453058696 2 2 0
6225 923 2 0.418 5.262263500988815 11.025934570170687 13.230799831831138 2 0 -1
4679 666 4 -0.6830000000000001 0.9570455036493217 5.476289537605239 14.066185313686047 1 -1 0
1121 149 7 0.06 3.84803767896055 1.6088193647932343 11.873821396609502 2 1 -1
2371 313 7 0.06 9.994190565941913 10.188758018215337 4.775524742433522 0 0 0
6221 923 4 -0.6830000000000001 4.515349646352947 11.078321236830144 13.827871190329631 2 0 -1
5443 793 1 0.04 2.308619566946482 0.8847876169905406 6.132121375897664 -1 1 0
3432 458 1 0.04 10.247621331538534 7.2827971430892 14.303733276686648 -1 2 0
5197 752 1 0.04 9.44034038812702 10.812923967855802 2.109878079676509 2 1 -1
966 128 1 0.04 0.7818656935668165 7.820360903195806 5.948575108054042 0 2 4
292 39 7 0.06 0.53938946177512 2.886166451507719 13.092396546105947 -1 1 0
2592 343 5 0.418 9.800084089234836 0.8690139726786958 1.1424977941863883 1 -2 -2
5198 752 1 0.04 9.651161986910482 9.603245910900805 0.8700281753869845 2 1 -1
2827 375 7 0.06 3.516831498247766 7.383950604517634 19.158216344244295 -1 -1 -1
5434 792 3 0.145 8.519173683691264 9.818972428335336 17.05110012048252 1 0 1
5439 792 2 0.418 7.4490810479706795 8.88631752429195 18.37760022021083 1 0 1
5435 792 4 -0.6830000000000001 7.513616493654081 8.851268340175306 17.411195744654513 1 0 1
657 85 7 0.06 9.254067082506504 6.487052114583454 21.664245450892434 -1 1 -1
655 85 7 0.06 8.580559096801343 7.4400692508450526 20.30625912849305 -1 1 -1
654 85 9 -0.18 9.370497069798809 7.42903323171712 21.118694368451333 -1 1 -1
656 85 7 0.06 9.006948377901216 8.26072348793906 21.74981267864833 -1 1 -1
2034 270 5 0.418 1.8621497157583184 5.378056366108138 20.9231759735263 2 2 0
5438 792 1 0.04 9.31263255059466 9.396741281067543 16.485823571712878 1 0 1
1796 238 4 -0.6830000000000001 2.1428489873639447 5.286905289183174 24.541669571931962 1 0 -1
3440 459 1 0.04 10.396819179461716 10.05765829217326 22.816858942055195 -1 0 1
2039 270 7 0.06 4.36779518233228 6.332249843548358 20.8413214518562 2 2 0
1095 145 2 0.418 6.6759616094356655 8.012890608894637 15.951097906969839 0 1 0
1795 238 3 0.145 0.9346920000229608 5.892509426167928 24.849563330638524 1 0 -1
2035 270 6 0.06 3.485333130747575 4.0830112717399425 20.740051143072346 2 2 0
1253 167 10 -0.6830000000000001 4.766926177600518 2.2234788009930972 17.21174209788653 0 0 0
1090 145 3 0.145 7.512226280249344 6.4610378307870375 15.044908204472845 0 1 0
2828 375 7 0.06 3.1750140068196364 7.680977598345273 17.563131624978073 -1 -1 -1
1092 145 1 0.04 7.040217809045658 5.685540041442351 15.647542520128106 0 1 0
6012 888 1 0.04 9.599460891749056 8.518766509380733 25.614300437696336 1 1 -2
6638 992 1 0.04 6.733047824688656 5.29065598625372 19.512602468289565 1 3 1
1091 145 4 -0.6830000000000001 6.658814568737186 7.640111235490432 15.068082589925837 0 1 0
6297 935 2 0.418 3.076321300904501 6.488973066471755 25.039128269728995 1 1 -2
1799 238 1 0.04 0.7924856784100296 6.8276927894823665 24.29496106816733 1 0 -1
2161 285 7 0.06 1.7973627508977927 10.259548940340473 15.656409871711817 2 1 -1
2585 342 4 -0.6830000000000001 6.874253844606912 9.57571023901515 20.128032246494968 -1 -1 2
2589 342 2 0.418 6.463799609849184 10.419460245891196 19.874374899752063 -1 -1 2
6634 992 3 0.145 6.431807057205897 4.587821492168908 18.759367308695186 1 3 1
6636 992 1 0.04 7.212833780269241 4.660986624507865 17.987803687465668 1 3 1
2584 342 3 0.145 5.915433917621981 8.826321504567003 20.827555883506136 -1 -1 2
6637 992 1 0.04 5.5418619180717075 4.857334872879406 18.168479885603727 1 3 1
6635 992 4 -0.6830000000000001 6.257882106529655 3.3542535868292553 19.29956197146264 1 3 1
4795 685 1 0.04 2.5424829970590723 3.9400866940102586 27.925729434117763 2 2 -1
6639 992 2 0.418 7.093334523672142 3.162360952505425 19.734765681274954 1 3 1
1254 167 5 0.418 5.257802431903105 2.718108967085496 17.875325341336787 0 0 0
2113 280 6 0.06 9.902486512898335 2.0326542444854834 16.669632910712416 2 1 1
1248 166 1 0.04 3.07177028640406 9.873391046390784 20.758018880157614 -3 2 -1
2163 285 7 0.06 1.671075204975406 10.22158887784339 17.502638548351847 2 1 -1
2826 375 9 -0.18 2.8231251137204043 7.0649340104365645 18.323598176187033 -1 -1 -1
2825 375 6 0.06 0.8969925168847176 6.555729652674663 17.518965020860286 -1 -1 -1
5437 792 1 0.04 9.056763938968984 10.125980774830879 17.949217185723874 1 0 1
2720 361 6 0.06 9.973921732301662 3.865453690894847 20.962077602966556 1 2 1
2160 285 9 -0.18 1.182303116921943 10.653317473739735 16.563830012832582 2 1 -1
6651 994 2 0.418 6.684781015167129 10.989237465195952 28.219523954540197 0 1 1
1256 167 6 0.06 3.437097241644299 1.5662553934789154 18.71029816111717 0 0 0
2588 342 1 0.04 5.522504672864113 9.345157487396003 21.748214197066968 -1 -1 2
1249 166 1 0.04 2.3799076448103786 9.193912965199296 22.24106450425124 -3 2 -1
2717 361 10 -0.6830000000000001 8.523698365266402 2.4316773333685426 20.516814623141325 1 2 1
652 85 6 0.06 11.045203206712786 8.378174333932453 19.9695262157594 -1 1 -1
2587 342 1 0.04 6.2880325871682246 7.864837580566415 21.095418737192638 -1 -1 2
2822 375 10 -0.6830000000000001 0.912508622232385 6.163347144450747 19.584931099255808 -1 -1 -1
4302 603 1 0.04 9.65588333256477 4.5738666518906275 17.052405358350303 0 0 -2
1259 167 7 0.06 5.501507652978325 0.7901222535971044 19.418747441649103 0 0 0
2586 342 1 0.04 5.09277897068994 8.687151745157 20.129364512414305 -1 -1 2
6223 923 1 0.04 4.340450967694129 10.419554500135902 15.93441116006117 2 0 -1
1246 166 3 0.145 2.2795218598177747 10.056992262837358 21.516942724168217 -3 2 -1
1250 166 1 0.04 1.240061998046543 9.934929077392187 21.08829220396966 -3 2 -1
2821 375 8 0.145 1.286879911938116 6.960482108755193 18.491991017714593 -1 -1 -1
1116 149 5 0.418 4.8009664543858745 1.8622320230882399 15.3633670626122 2 1 -1
5436 792 1 0.04 8.090231617330582 10.643716478822368 16.489222670862546 1 0 1
2829 375 7 0.06 3.160691284048695 6.049648328270505 18.079569542881295 -1 -1 -1
1252 167 8 0.145 4.0560962786680514 1.176002020662953 17.92490552816654 0 0 0
649 85 8 0.145 10.838213972966676 7.714768102663238 20.784771404190725 -1 1 -1
1094 145 1 0.04 8.43293265891599 6.669956510304508 15.550526601932326 0 1 0
2033 270 10 -0.6830000000000001 2.0396206805774972 4.874430562308923 21.6650375277455 2 2 0
2032 270 8 0.145 3.4666220605752196 4.557583166647417 21.702570517322737 2 2 0
2824 375 6 0.06 0.7721062274539697 7.931628538845821 18.66531288037888 -1 -1 -1
1181 158 10 -0.6830000000000001 4.7297222625244 1.228927518448721 24.182662199252608 0 0 1
2037 270 9 -0.18 4.372069577555525 5.761299288356443 21.817039667392375 2 2 0
4304 603 1 0.04 10.85605537100891 3.8416475683204405 18.276111652439777 0 0 -2
6222 923 1 0.04 5.765784424704424 10.033840190225128 15.087448333928617 2 0 -1
2114 280 6 0.06 8.782218719496656 1.3007485469011706 17.76272903318839 2 1 1
2040 270 7 0.06 5.420699105931413 5.4347626887291645 21.97980925987328 2 2 0
2036 270 6 0.06 3.8058244685649596 3.8596614935429834 22.5110426693199 2 2 0
4301 603 4 -0.6830000000000001 10.930829836821802 5.943254263252997 17.946539395351376 0 0 -2
2716 361 8 0.145 8.973286860843247 3.5683753424295332 21.23341257269 1 2 1
1565 205 6 0.06 1.495185740607677 1.3137876482689692 23.90243069442196 1 0 -1
2038 270 7 0.06 4.152921308696062 6.398025483489614 22.667964436391674 2 2 0
6015 888 2 0.418 7.995640588370394 6.7248623060735 26.099929211048483 1 1 -2
531 69 2 0.418 9.13932794101911 5.528327263581954 27.618926288855192 0 1 0
1800 238 2 0.418 2.0752271960338673 4.792263227705234 23.700575251881677 1 0 -1
6650 994 1 0.04 7.7298204620604904 10.231561007943435 26.566163428683797 0 1 1
1487 195 6 0.06 8.957374111442471 1.4693695573357592 24.97295841388614 -1 2 -1
5120 739 1 0.04 5.605655153352119 4.515788178393841 24.820999231516247 1 1 1
1169 156 4 -0.6830000000000001 0.6246075199240072 9.929648846972254 28.395765183298188 1 1 1
1798 238 1 0.04 0.7783313235329871 6.096204200925514 25.89815722597322 1 0 -1
5118 739 1 0.04 7.0247841343573105 4.183870536745632 25.907929970181257 1 1 1
4300 603 3 0.145 10.670256753844647 4.642974243236746 17.489080750913946 0 0 -2
4049 561 4 -0.6830000000000001 0.5674577105817848 1.2432681934521748 17.779402751790393 1 0 -2
2718 361 5 0.418 9.121388494690624 1.676982581134538 20.6435898598653 1 2 1
6293 935 4 -0.6830000000000001 3.726829027549584 7.174784794422513 25.210769034007946 1 1 -2
6646 994 3 0.145 6.871775008388335 9.695889000976381 26.952716531541522 0 1 1
6292 935 3 0.145 3.501973625088704 7.634873559814784 26.524878640472753 1 1 -2
2723 361 7 0.06 7.959786293860563 2.6610821535391134 22.96610482858225 1 2 1
2110 280 8 0.145 9.464336965398063 1.0201275907281497 17.06737170812095 2 1 1
1184 158 6 0.06 5.921264264163427 1.5904289700182164 22.518433779701418 0 0 1
416 54 10 -0.6830000000000001 6.115868137935352 1.7448262640335312 26.697520481050585 -1 2 0
6220 923 3 0.145 4.717969191524509 10.171878067130631 14.945213744649074 2 0 -1
6010 888 3 0.145 9.65675203461738 7.467565940484641 25.457366553071722 1 1 -2
6295 935 1 0.04 3.8680638103314298 6.9035508521558615 27.220110188964906 1 1 -2
6192 918 1 0.04 4.303446001724346 6.063574635752545 15.249062280804566 1 -1 0
6014 888 1 0.04 9.304243691574394 7.2440045908594 24.440323520764785 1 1 -2
417 54 5 0.418 6.297345220004368 2.4226173190166973 27.365709182969475 -1 2 0
5116 739 3 0.145 6.066706756979636 4.746115508996318 25.75218969856461 1 1 1
6294 935 1 0.04 2.466679140576822 7.816375204679402 26.70498877750134 1 1 -2
6296 935 1 0.04 4.199896720236746 8.403593020406952 26.805630035959634 1 1 -2
6647 994 4 -0.6830000000000001 6.465140502679556 10.046706755056215 28.2506436821709 0 1 1
2722 361 7 0.06 9.703619032864042 2.71420187517861 22.965522533889583 1 2 1
6013 888 1 0.04 10.664867319988309 7.162069731831964 25.34385383214821 1 1 -2
2721 361 9 -0.18 8.782751892516963 3.22068600030448 22.693120714496544 1 2 1
6649 994 1 0.04 6.099218974601927 9.911320027956437 26.232260017418287 0 1 1
5117 739 4 -0.6830000000000001 6.267486616787704 6.14911505929321 25.77535658600783 1 1 1
6011 888 4 -0.6830000000000001 8.91570480028882 6.702119147160744 26.37445340731388 1 1 -2
5042 726 1 0.04 3.1827120657405916 10.405418772817804 25.310595341284134 -2 -2 1
527 69 4 -0.6830000000000001 9.267896522111165 4.878350769119581 28.36276063941169 0 1 0
2719 361 6 0.06 8.3658127517943 4.444815714362839 21.021079288600852 1 2 1
5121 739 2 0.418 5.323492675738361 6.423874560076104 25.571922083913254 1 1 1
5119 739 1 0.04 5.4623362813723775 4.592369620956699 26.64496319857878 1 1 1
1182 158 5 0.418 5.312911089355751 1.4227867270205996 24.973444531218377 0 0 1
6648 994 1 0.04 7.243408641756177 8.658955857294856 26.823144691613898 0 1 1
2724 361 7 0.06 8.805425857415681 4.220637043800613 23.21190223037317 1 2 1
4052 561 1 0.04 0.8282002684043871 2.5578594905721124 19.49743534153431 1 0 -2
6193 918 1 0.04 3.8239315157764517 4.351738863340142 14.860487199448862 1 -1 0
4334 608 1 0.04 10.763974104971986 5.362995059724631 24.12753800172912 3 0 -1
4051 561 1 0.04 0.8941083782665096 0.806002432422074 19.75445124357717 1 0 -2
3436 459 3 0.145 10.92451946990572 10.9170235019447 22.66409573591227 -1 0 1
1489 195 7 0.06 11.018859959349967 1.2434347516017819 26.47136465392925 -1 2 -1
4305 603 2 0.418 11.083497252281745 6.474285353365748 17.107162138444103 0 0 -2
6224 923 1 0.04 4.304307205445836 9.171075458307877 14.720082838649013 2 0 -1
6576 982 1 0.04 5.448655706950279 4.209144370795658 28.939769369672828 -1 1 0
3608 487 1 0.04 9.773033536597024 8.394929579248924 28.964911534818167 2 3 -1
4788 684 1 0.04 6.234907719247886 7.7294054091343805 32.282852276543295 2 0 -1
1171 156 1 0.04 1.9726622850061792 9.836412466038073 29.925005569877726 1 1 1
2172 286 7 0.06 7.695526918609315 7.8355025599028645 33.99508936730156 -1 1 0
1841 244 10 -0.6830000000000001 8.73283886646392 2.8324010184193735 31.484223141709506 2 -1 1
1842 244 5 0.418 8.347638031742864 3.1638236149063617 30.630285521293963 2 -1 1
4786 684 3 0.145 5.731295222553056 8.203322035364321 31.429764401095515 2 0 -1
771 101 2 0.418 8.773771851518681 3.8544406074310813 33.33989551272036 -3 0 0
1766 234 10 -0.6830000000000001 10.692457068599262 1.5395683957018327 41.36710022978817 0 1 -1
4789 684 1 0.04 4.955631628022276 8.774385598402443 31.90477612603978 2 0 -1
770 101 1 0.04 6.771366316406976 5.203967755387997 34.668376668305484 -3 0 0
3609 487 2 0.418 8.569410499202348 8.715260880601054 31.024004897624085 2 3 -1
3605 487 4 -0.6830000000000001 9.541386057396446 8.952851769096597 30.881813815521454 2 3 -1
766 101 3 0.145 7.220484083018692 4.790706180224818 33.80996924388035 -3 0 0
767 101 4 -0.6830000000000001 8.474673052401268 4.225758817899174 34.193372874807345 -3 0 0
4797 685 2 0.418 1.7961827128154695 5.702451277296992 29.057270304987064 2 2 -1
769 101 1 0.04 6.59291902955982 4.057290811250182 33.31283039884144 -3 0 0
2266 299 3 0.145 4.394789069676808 10.849080903277978 41.63242013445352 1 3 0
5934 875 1 0.04 5.7111844541057515 1.889336755127722 33.64603317756897 1 2 -1
5861 863 4 -0.6830000000000001 0.7100684425480146 7.426228732481132 29.23508065475974 1 1 1
6359 946 4 -0.6830000000000001 4.072719307770491 5.0423161096323845 31.968339106771595 0 1 -1
4027 557 1 0.04 3.2225569913957828 8.171255275788724 35.55808019021609 1 1 -2
6358 946 3 0.145 3.295384894891834 5.501202741210392 33.12417889067475 0 1 -1
68 11 4 -0.6830000000000001 2.969486179923802 7.47046592016132 42.141353787289184 0 -2 2
6575 982 4 -0.6830000000000001 7.104387695704928 3.277283888547978 28.79943120084926 -1 1 0
2667 353 9 -0.18 1.4772574915373398 1.6369648009796158 40.72258855257586 1 2 0
1840 244 8 0.145 8.516996672876987 1.3946075559523736 31.666939376011566 2 -1 1
5936 875 1 0.04 7.179367621690801 1.6562814037136873 34.714727827959045 1 2 -1
6590 984 1 0.04 9.747201274100837 4.520501053118509 39.79526264535616 1 0 -3
2268 299 1 0.04 5.061325861283859 10.281986735721377 42.353488970161465 1 3 0
71 11 1 0.04 2.3346730252274726 8.197935026353218 40.28599356241792 0 -2 2
4790 684 1 0.04 5.334480556808862 7.3803365636429215 30.808443767433584 2 0 -1
2164 286 8 0.145 7.28431747313174 9.764153676211302 34.58532541685023 -1 1 0
2168 286 6 0.06 6.158834191245785 9.701250040230109 34.64556490802107 -1 1 0
2169 286 9 -0.18 7.90241358664359 8.451847863322573 34.88832242852341 -1 1 0
6363 946 2 0.418 3.483406684603454 5.031743238849463 31.205624801844237 0 1 -1
3606 487 1 0.04 9.118857248854216 9.932696954260127 29.11943400120332 2 3 -1
5932 875 3 0.145 6.169517576419871 1.2653053965268852 34.39623234778365 1 2 -1
4028 557 1 0.04 3.9101224755551223 9.707608609343067 35.92772942723957 1 1 -2
4787 684 4 -0.6830000000000001 6.65094061565855 8.995200818382683 30.74069229045032 2 0 -1
3604 487 3 0.145 9.83016778238413 9.265864003475414 29.523580555554823 2 3 -1
6578 982 1 0.04 6.486079849416078 4.66743534292868 30.218821197873847 -1 1 0
4024 557 3 0.145 3.315302453400472 8.906331837975957 36.33365961429081 1 1 -2
3607 487 1 0.04 10.868970583276129 9.583602224005148 29.41534877863385 2 3 -1
6360 946 1 0.04 2.29799858813354 5.003561675020329 33.09251648018617 0 1 -1
768 101 1 0.04 7.4241760073335525 5.574165056479629 33.10220993322673 -3 0 0
4026 557 1 0.04 3.9266622612511277 8.453241976475429 37.174224516310645 1 1 -2
4793 685 4 -0.6830000000000001 2.333980267086557 5.054401164777622 29.589719023176 2 2 -1
2663 353 10 -0.6830000000000001 2.3035044804978666 3.601017047014432 41.97260122521316 1 2 0
329 43 7 0.06 0.5646300229857207 4.29793874342845 36.957530443833164 0 1 -1
6589 984 1 0.04 10.872272424909161 4.672068679415035 38.52735163370954 1 0 -3
4792 685 3 0.145 2.253776651220478 3.7667959830311104 28.993308262924643 2 2 -1
2167 286 6 0.06 7.507217881627512 10.145863035028158 33.62965195730533 -1 1 0
2165 286 10 -0.6830000000000001 7.6263022327287775 10.67072587496163 35.61147662577999 -1 1 0
528 69 1 0.04 10.611037589095302 4.495184472737572 29.907632902529006 0 1 0
2269 299 1 0.04 3.472578343477168 10.21329508307292 41.40665368044333 1 3 0
1846 244 7 0.06 10.343373032367706 1.257670570170694 32.763645335173656 2 -1 1
6574 982 3 0.145 6.143216854576511 3.854441918821903 29.606998275598023 -1 1 0
1845 244 9 -0.18 9.368393310039961 0.9396501123309258 32.85182935087967 2 -1 1
6361 946 1 0.04 3.8204039284371714 5.2986824268478765 34.007028225759456 0 1 -1
5772 848 1 0.04 0.7263408797555823 0.9801756266930657 30.388263636677863 1 -1 0
6579 982 2 0.418 7.784777014697437 3.931331735739005 28.574887764129937 -1 1 0
2171 286 7 0.06 8.97079496276126 8.458184926278069 35.09206803034795 -1 1 0
4791 684 2 0.418 6.295602098110166 9.130580288859893 29.867370044756587 2 0 -1
6654 995 1 0.04 10.829092915367667 5.180163617195816 32.41176101679936 0 3 -1
1168 156 3 0.145 1.6818751924674653 10.462355438277337 29.075404750102585 1 1 1
1711 226 1 0.04 10.459333963674124 1.250558055444277 36.0429851730291 1 1 1
6390 951 1 0.04 7.529414295471465 4.316912135948179 38.55858792973958 -1 2 -1
4029 557 2 0.418 1.5261395064279804 8.621346245013896 37.04392158646134 1 1 -2
6393 951 2 0.418 8.362591549883422 3.7635074512837026 35.98841984175484 -1 2 -1
6392 951 1 0.04 6.740296008698783 4.838637447243197 37.06972924373497 -1 2 -1
6362 946 1 0.04 3.0191357032713286 6.567253876334491 33.0428446405837 0 1 -1
4025 557 4 -0.6830000000000001 1.971051202911983 9.341750143226472 36.60638343755803 1 1 -2
530 69 1 0.04 10.42914439353424 6.20332990922208 29.553850497692135 0 1 0
1739 230 6 0.06 5.372238826079108 2.3138951270403276 37.91600512516217 -2 1 1
2666 353 6 0.06 3.3348541324134087 1.7921945620791815 41.745233954326345 1 2 0
3965 547 4 -0.6830000000000001 9.86737081132729 10.536498471294358 37.28547238321261 1 1 0
2668 353 7 0.06 1.7443568285403637 2.2622016220319527 39.87558548961769 1 2 0
1844 244 6 0.06 7.427437263196331 1.2259263361025048 31.769354526851306 2 -1 1
1742 230 7 0.06 4.9096826397049576 3.279069094888584 40.19692323989969 -2 1 1
5935 875 1 0.04 5.497087157371545 1.2918908508915508 35.20899816490314 1 2 -1
1767 234 5 0.418 10.536089592478975 1.8130269858180659 40.43817298512626 0 1 -1
526 69 3 0.145 10.430989851684252 5.204207263486112 29.073336239821284 0 1 0
931 124 8 0.145 6.099965899558688 7.23009927290341 40.159896333691876 0 1 -2
939 124 7 0.06 4.254496635992941 7.0070845029813364 38.92306852109028 0 1 -2
933 124 5 0.418 6.196072428822727 7.3875509748568575 42.10740403828794 0 1 -2