LAMMPS data file via write_data, version 29 Aug 2024, timestep = 1000000, units = real

6216 atoms
10 atom types
5216 bonds
8 bond types
7432 angles
10 angle types
3792 dihedrals
7 dihedral types

0.8723715710789541 42.73427842890523 xlo xhi
1.2009096927438172 42.34079030725768 ylo yhi
1.290200082389628 41.95260991759953 zlo zhi

Masses

1 1.008
2 1.008
3 12.011
4 15.999
5 1.008
6 1.008
7 1.008
8 12.011
9 12.011
10 15.999

Pair Coeffs # lj/cut/coul/long

1 0.03 2.5
2 0 0.5
3 0.066 3.5
4 0.17 3.12
5 0 0.4
6 0.03 2.5
7 0.03 2.5
8 0.066 3.5
9 0.066 3.5
10 0.17 3.12

Bond Coeffs # harmonic

1 340 1.09
2 320 1.41
3 553 0.96
4 268 1.529
5 340 1.09
6 340 1.09
7 320 1.41
8 553 0.96

Angle Coeffs # harmonic

1 55 108.5
2 33 107.8
3 35 109.5
4 55 108.5
5 37.5 110.7
6 33 107.8
7 37.5 110.7
8 33 107.8
9 50 109.5
10 35 109.5

Dihedral Coeffs # opls

1 0 0 0.45 0
2 -0.356 -0.174 0.492 0
3 0 0 0 0
4 0 0 0 0
5 0 0 0.318 0
6 0 0 0.45 0
7 0 0 0.468 0

Atoms # full

3510 549 2 0.418 8.446091657336197 6.932795621537473 1.6476699693249546 0 0 0
5792 930 4 -0.6830000000000001 8.829141377829643 5.099505948570828 5.57966954646663 3 2 -2
5791 930 3 0.145 10.037604227962605 4.811730545498724 6.20840213153174 3 2 -2
3506 549 4 -0.6830000000000001 8.153356468325313 7.822112170461459 1.6808360334830725 0 0 0
2654 407 4 -0.6830000000000001 2.261445632020048 4.37039569623646 4.808032170145088 0 1 -1
1812 266 2 0.418 5.066110946706328 3.9919465251554325 2.789895058579951 0 2 0
3240 504 2 0.418 4.637435501026502 9.436848905882416 1.6845936232089092 0 1 0
5509 883 3 0.145 6.558739388748656 8.636816460361736 7.007138100524981 1 2 2
1810 266 1 0.04 6.044581227842478 2.533805017008058 3.6900691933594234 0 2 0
3235 504 3 0.145 4.453462407284294 8.017705556412771 2.8307830476542684 0 1 0
5514 883 2 0.418 4.9596944334057875 9.192725844291886 7.8586291936511765 1 2 2
5510 883 4 -0.6830000000000001 5.395789313046632 8.382932135581218 7.7944628904458915 1 2 2
1923 285 1 0.04 7.316794955101156 1.6456668866768516 10.532662219810078 3 1 1
5796 930 2 0.418 8.931597349589284 5.33671182637122 4.6310896349779185 3 2 -2
5258 841 4 -0.6830000000000001 10.105244487315494 2.725542941529797 2.388514916430037 1 2 -2
3539 554 1 0.04 6.164381751989356 5.463356021497394 7.720316795189318 0 1 3
5795 930 1 0.04 10.725822269612031 5.688698776517817 6.229759821342147 3 2 -2
5794 930 1 0.04 10.60121269367055 4.044714555334748 5.72417946176151 3 2 -2
3509 549 1 0.04 9.04439236350673 7.985441485162749 3.568412603976208 0 0 0
3239 504 1 0.04 5.385231652342916 7.5705842265759635 2.467525267439738 0 1 0
1808 266 4 -0.6830000000000001 4.402152489441786 3.723508219509472 3.445622962236205 0 2 0
5793 930 1 0.04 9.727514565530536 4.465667378032884 7.211380712376065 3 2 -2
3540 554 2 0.418 7.426214330979528 4.079825580030479 6.53702183887262 0 1 3
5371 860 3 0.145 1.4056365360155727 7.553459007614461 4.880947588248245 2 1 3
2657 407 1 0.04 1.1219611558530311 2.6959841037946086 4.140738863192807 0 1 -1
5512 883 1 0.04 7.031353760360308 9.517083210302184 7.269109357290009 1 2 2
3507 549 1 0.04 8.1301533487925 9.335780592172286 3.012426190801235 0 0 0
5249 839 1 0.04 1.8238230056655342 6.77771823425529 13.506894778353205 1 -2 1
1443 205 1 0.04 1.8343521236381224 11.123911817728626 8.732474593591975 -2 -1 0
5513 883 1 0.04 7.315267880222379 7.867032880010019 7.242696678247759 1 2 2
3536 554 4 -0.6830000000000001 6.683572469764274 3.6299383096837525 6.928342228835902 0 1 3
1921 285 3 0.145 6.458941304909125 1.87112229888025 11.102378932713064 3 1 1
5262 841 2 0.418 10.140835225815842 2.372232904349304 3.2484565235226355 1 2 -2
5228 836 4 -0.6830000000000001 8.35866803055022 10.150842910874678 14.65889971519602 0 0 -1
3237 504 1 0.04 4.36802212578684 7.8675605082460045 3.903459459550359 0 1 0
3535 554 3 0.145 5.783153135358905 4.709257499002826 7.065733210833404 0 1 3
3638 571 4 -0.6830000000000001 6.321309068931219 7.840803074505359 13.15141906401687 1 -2 -1
2658 407 2 0.418 3.060785700888954 3.9209922138629154 4.448937175569524 0 1 -1
5227 836 3 0.145 8.036705233235947 11.008586176700833 13.596531880196029 0 0 -1
3537 554 1 0.04 5.8505808508621895 5.168320502690023 6.1029849766504745 0 1 3
3508 549 1 0.04 7.2991939673901545 7.869143063795332 3.57839966140332 0 0 0
857 117 6 0.06 8.782358712456897 1.9358123402823226 6.304941707824376 2 0 2
3236 504 4 -0.6830000000000001 4.447097664347542 9.4144827290217 2.627870444684045 0 1 0
1811 266 1 0.04 4.770649362349044 2.2409363260907535 4.830924831046145 0 2 0
4868 776 4 -0.6830000000000001 9.812801302571 11.389022235653961 6.068663038564469 -1 0 -1
1446 205 2 0.418 2.7791124246066383 10.124511729641986 6.192283959269539 -2 -1 0
4182 661 2 0.418 3.8566693972461312 10.534647924775644 3.929850880249301 2 2 2
3538 554 1 0.04 4.7876519853799735 4.360062847467967 7.362879089101391 0 1 3
4667 742 1 0.04 10.311725545674872 5.897455404704127 11.267601791410758 -2 3 -1
1731 253 1 0.04 3.761937703948407 3.6373089902228584 10.067594843223166 1 0 2
3505 549 3 0.145 8.15174630843921 8.219495702962956 3.0246377616717393 0 0 0
5236 837 1 0.04 11.246282654799487 7.615918524702893 7.082893367607646 2 0 0
4872 776 2 0.418 10.582106532660223 10.863261529344971 6.178248959050306 -1 0 -1
1989 296 1 0.04 2.97179582749335 10.773951561379155 14.026771808281483 1 1 -1
5373 860 1 0.04 2.508791796799753 7.500507420577572 4.737452695960657 2 1 3
1730 253 4 -0.6830000000000001 4.005328010401476 4.43412180157016 11.96990669192726 1 0 2
2656 407 1 0.04 0.8759916348155542 4.202697958301514 3.297623213338834 0 1 -1
5063 808 1 0.04 7.7381690234031675 6.556299827873701 10.955730668676445 2 0 1
3238 504 1 0.04 3.5282138655822135 7.758497081180456 2.310463772016664 0 1 0
4289 679 1 0.04 10.6031446368178 9.945992269254369 12.818257275304784 0 1 1
4869 776 1 0.04 9.914340958576933 10.292224985436784 4.342859690575955 -1 0 -1
591 81 7 0.06 1.1994727539151384 10.323916471624246 12.448966964671246 -1 0 1
4867 776 3 0.145 9.603196645297691 11.328083736601 4.698543675019065 -1 0 -1
2092 313 1 0.04 2.236394592537902 8.254257282813615 9.60696610403648 0 1 1
5062 808 1 0.04 6.191433036627958 6.330946343351557 10.333951474258358 2 0 1
3637 571 3 0.145 5.525676969581491 8.57526461562902 12.373740628948196 1 -2 -1
3639 571 1 0.04 6.031466321210421 9.043261504451694 11.498107574331302 1 -2 -1
1925 285 1 0.04 6.698538843997615 2.216292831655175 12.06749754093974 3 1 1
1444 205 1 0.04 3.470262412770348 10.391094719421464 8.639385896990422 -2 -1 0
5376 860 2 0.418 1.5225534393662155 5.80742064170852 5.4819104867100075 2 1 3
1442 205 4 -0.6830000000000001 2.212037680046669 10.006864419364819 6.9742558287996586 -2 -1 0
2089 313 3 0.145 2.2350495338898972 7.228604026012847 9.379073987982448 0 1 1
5372 860 4 -0.6830000000000001 1.0467017771307443 6.586853135132529 5.837813580801942 2 1 3
2653 407 3 0.145 1.074497635479799 3.759645127949925 4.274231883835109 0 1 -1
1807 266 3 0.145 4.939087227565233 2.4968519013351376 3.8549666577097272 0 2 0
4178 661 4 -0.6830000000000001 3.660059741229155 10.89762239269155 4.794703294689313 2 2 2
2090 313 4 -0.6830000000000001 1.1242206078184873 6.8336181890519505 8.619855806528191 0 1 1
5511 883 1 0.04 6.2727096634860375 8.461483199627402 5.929507802169516 1 2 2
6018 967 2 0.418 8.914156207764423 9.743002524051839 10.940546433763613 1 -1 -1
5257 841 3 0.145 10.4709288143655 1.64150998185076 1.5469273424016836 1 2 -2
5231 836 1 0.04 8.922847582427641 11.417885654066179 13.118139456592102 0 0 -1
854 117 10 -0.6830000000000001 10.044913160702768 1.285301828826567 4.83420964045429 2 0 2
5245 839 3 0.145 1.2479292877783301 6.019195205147074 14.109368997117521 1 -2 1
2237 337 1 0.04 4.131090993575314 1.5421049320028377 8.601904983572505 -2 0 0
4285 679 3 0.145 10.708496139478093 9.043661112988424 12.307228423696994 0 1 1
5424 868 2 0.418 9.304212685964488 4.438487893382749 2.2430219512459293 3 1 0
5059 808 3 0.145 7.012036650513407 5.770734923835101 10.822417271787451 2 0 1
5638 904 1 0.04 1.3310378448597118 2.3395680331117163 7.279927936000752 2 0 0
6013 967 3 0.145 9.336829264438313 10.825400890612233 9.339394508825768 1 -1 -1
1809 266 1 0.04 4.525600539748096 1.6216397791144526 3.310208154356931 0 2 0
4290 679 2 0.418 8.996426803123489 8.335861109990201 12.916805193495625 0 1 1
5246 839 4 -0.6830000000000001 2.097437824528034 4.945891686135229 14.27713450084368 1 -2 1
5375 860 1 0.04 1.1893944041261046 8.544362457585791 5.141115951653149 2 1 3
2091 313 1 0.04 3.1964796054137063 6.936407727180196 8.97977307619615 0 1 1
2093 313 1 0.04 2.0212216064839534 6.713473826788705 10.345162053763438 0 1 1
5229 836 1 0.04 7.35077070676663 10.515557096218377 12.861603573067041 0 0 -1
1441 205 3 0.145 2.671933746708566 10.867711283747884 8.030193565908782 -2 -1 0
1924 285 1 0.04 5.838879407767821 2.6081286079663717 10.621074827833011 3 1 1
4665 742 1 0.04 10.568497095452418 7.147255176042117 9.974683384903509 -2 3 -1
3642 571 2 0.418 6.319331898012387 6.942368449599976 12.841831322842673 1 -2 -1
5420 868 4 -0.6830000000000001 9.333772198129243 5.257824887253483 1.700569862304391 3 1 0
5250 839 2 0.418 1.5377494809515886 4.161163661690125 14.433653282702293 1 -2 1
589 81 7 0.06 1.6532348816263434 11.362332499612936 11.066587485919053 -1 0 1
6014 967 4 -0.6830000000000001 8.533771302728912 10.52990871798952 10.501124775578688 1 -1 -1
3641 571 1 0.04 5.157237845631554 9.521342612899376 12.972517608871584 1 -2 -1
4286 679 4 -0.6830000000000001 9.434206578326519 8.391582446089675 12.091010442775344 0 1 1
1733 253 1 0.04 2.2709945969960286 4.423398599972465 10.862164943347778 1 0 2
3640 571 1 0.04 4.655660473062484 8.068601654519707 12.010272505477914 1 -2 -1
1729 253 3 0.145 3.2018503621864656 3.8664760971726366 10.991733381409988 1 0 2
1734 253 2 0.418 3.4084379002109744 4.666687269271593 12.700115215104724 1 0 2
1732 253 1 0.04 2.9046082419839983 2.896344150859166 11.451358234340153 1 0 2
5064 808 2 0.418 5.799843026290842 4.755521197152282 12.01892136498165 2 0 1
2238 337 2 0.418 6.402086587796712 1.9574986388266211 7.763762307204996 -2 0 0
5061 808 1 0.04 7.299025112898646 4.954432207495026 10.157139670134121 2 0 1
5060 808 4 -0.6830000000000001 6.6073083202318355 5.294369232421401 12.066926900618402 2 0 1
4666 742 1 0.04 9.505668099552175 5.748285175233043 9.690159860536875 -2 3 -1
856 117 6 0.06 8.060052444924564 1.362248076351837 4.863177305354654 2 0 2
4288 679 1 0.04 11.1280648574326 9.383847876837113 11.294303558283891 0 1 1
6017 967 1 0.04 10.369251744872905 10.981500557932673 9.603075890671562 1 -1 -1
2094 313 2 0.418 1.1985246890694419 7.180851215495935 7.699559029964274 0 1 1
6015 967 1 0.04 9.209934471522711 10.042519140864233 8.626572146756688 1 -1 -1
4663 742 3 0.145 10.446390008171806 6.055920861188644 10.19820712676382 -2 3 -1
2235 337 1 0.04 4.6183400140723 1.3102634021095647 6.8875098322193 -2 0 0
2703 415 1 0.04 11.253599250246712 1.914629121459789 14.35646971201029 -1 0 1
855 117 5 0.418 10.85437591986118 1.3930304598465997 5.437757936737026 2 0 2
5637 904 1 0.04 0.9138366549854311 1.2774554964136808 8.604603344841895 2 0 0
1401 198 1 0.04 7.495021260488139 6.616117661498011 19.193339524582534 2 2 -1
5389 863 3 0.145 10.295509890073909 6.209955198597137 16.70749880199643 1 1 0
3701 581 1 0.04 5.7883778453970045 8.743924488459804 20.742815336647652 0 -2 -1
1404 198 2 0.418 7.472918843609782 4.6819466660333156 18.04174056806324 2 2 -1
1735 254 3 0.145 5.027231425911185 2.2337536282410473 19.92980073595704 1 0 -2
5393 863 1 0.04 9.680298365614943 6.859445010741248 17.403435964820076 1 1 0
3279 511 1 0.04 6.74985062998846 7.927024339510598 16.927247177501254 2 2 -2
1400 198 4 -0.6830000000000001 8.255159049148466 4.928965007145543 18.584932610590258 2 2 -1
3699 581 1 0.04 4.716483817845081 9.715957880648197 21.759535573556175 0 -2 -1
3700 581 1 0.04 4.048648721847913 8.228758706721337 21.093313568224147 0 -2 -1
3702 581 2 0.418 4.92070081378963 10.257520480087601 19.419512237507018 0 -2 -1
576 79 2 0.418 10.593619352534416 7.951688042389187 18.566742784188456 -1 0 -1
3697 581 3 0.145 4.738342893590328 9.028660438228325 20.93733003053142 0 -2 -1
3282 511 2 0.418 5.8542154026919775 8.639754408345613 15.010010299019541 2 2 -2
4224 668 2 0.418 2.9549322024117233 4.297610334554724 15.795891334797323 0 0 2
3698 581 4 -0.6830000000000001 4.248092294454825 9.74968845298306 19.809833109897575 0 -2 -1
5826 935 2 0.418 9.74440797126933 9.793196698981294 15.333699275247653 1 0 0
4372 693 1 0.04 9.061549352183471 2.774482792604963 22.924021256918824 2 2 0
1402 198 1 0.04 6.894617696189867 5.209131383757226 20.116630130650904 2 2 -1
4207 666 3 0.145 6.870771362735445 3.708508301563863 15.890323594309754 2 1 0
4208 666 4 -0.6830000000000001 6.09544128559084 4.246768134329623 16.975568317010186 2 1 0
381 52 2 0.418 9.528441425335595 3.7751317868015923 19.12475900901301 -1 0 -1
572 79 4 -0.6830000000000001 10.874777275427533 8.4123502257223 19.363004542157633 -1 0 -1
1166 159 6 0.06 9.535953043748577 10.988928803869433 18.083717741477326 1 -1 1
5778 927 2 0.418 2.7157547190713234 9.522758853927451 19.045098799511802 0 -1 -1
1399 198 3 0.145 7.769963344867401 5.665207502736937 19.60743385906258 2 2 -1
3280 511 1 0.04 6.049754417346787 9.33469007545419 17.869347648872964 2 2 -2
3751 590 3 0.145 8.429829263484468 10.217119174287934 23.66979663109676 1 2 -1
377 52 4 -0.6830000000000001 10.268674933934847 3.169511070973119 19.342124737356187 -1 0 -1
4219 668 3 0.145 3.3354248572575713 2.3232948864229677 16.25960914549551 0 0 2
1403 198 1 0.04 8.700940273170671 5.7521332286876286 20.207105257341464 2 2 -1
5822 935 4 -0.6830000000000001 10.382947447925503 9.391356421100284 15.953543120638214 1 0 0
280 39 1 0.04 4.319570356209618 5.725022226071547 22.122936973102114 -1 0 -1
379 52 1 0.04 10.919324753880293 1.2026886573678992 18.787584228447038 -1 0 -1
5392 863 1 0.04 10.546556480313747 5.220890070034149 17.116488639769415 1 1 0
5776 927 1 0.04 2.270988063972742 10.68370125120672 17.02829449969009 0 -1 -1
3278 511 4 -0.6830000000000001 5.910215155803779 9.297668679928362 15.713762509309019 2 2 -2
4371 693 1 0.04 7.559264730706522 2.9995917730827624 22.016268399897836 2 2 0
4223 668 1 0.04 2.557229871385773 1.9313155949214798 15.660794878938033 0 0 2
4221 668 1 0.04 4.204158494369425 2.215286893706655 15.65955583640671 0 0 2
1738 254 1 0.04 4.704474484133988 3.2634746214042796 19.620136946762575 1 0 -2
2284 345 1 0.04 8.72926687754461 5.170194930559601 22.92763367264044 0 1 -1
2281 345 3 0.145 8.613044995643964 6.227529495537719 23.446739793563502 0 1 -1
2325 352 1 0.04 10.212150079537754 3.3588971219951382 27.90454041417177 0 -2 0
5391 863 1 0.04 9.619725827508791 5.9429746325955675 15.865904640966836 1 1 0
3277 511 3 0.145 5.918586749559878 8.642938596694046 17.00630820727169 2 2 -2
5773 927 3 0.145 2.2573388954401787 9.607984067639368 17.063987235440734 0 -1 -1
3281 511 1 0.04 5.006954748279021 8.095036931078443 17.25102637010013 2 2 -2
1174 160 1 0.04 2.7766955192603344 6.047255347186238 19.546720935251777 1 1 0
5774 927 4 -0.6830000000000001 2.0022994797778337 9.199003256317745 18.422130100973913 0 -1 -1
2324 352 4 -0.6830000000000001 10.055886225032268 5.448263607973489 28.205073885054958 0 -2 0
1171 160 3 0.145 2.2453086079148075 5.074897254993356 19.745989816347862 1 1 0
2283 345 1 0.04 7.624724953033836 6.384184823568901 23.847945787583463 0 1 -1
5777 927 1 0.04 3.1889792128202235 9.271642690491252 16.549094166302563 0 -1 -1
1736 254 4 -0.6830000000000001 6.152320909207748 1.789392358776309 19.27531633738096 1 0 -2
282 39 2 0.418 4.81288621731603 4.381176267984932 23.798533101751982 -1 0 -1
4190 663 4 -0.6830000000000001 11.167434867061544 8.068631797842542 27.048498956427213 1 4 0
593 82 4 -0.6830000000000001 0.9701690410769236 7.155231124344876 25.057332070300106 0 1 0
2285 345 1 0.04 9.303407460446001 6.375902228228467 24.307486156985586 0 1 -1
4209 666 1 0.04 7.660638194831706 4.395498335441272 15.648507605649355 2 1 0
4373 693 1 0.04 7.863921917006184 1.5576001291559707 22.779535613249713 2 2 0
1740 254 2 0.418 5.815612465944769 1.4416815090705322 18.46375526573688 1 0 -2
4220 668 4 -0.6830000000000001 3.187166268294839 3.7254733054535243 16.59703388403384 0 0 2
4210 666 1 0.04 7.374424644392854 2.773705373182449 16.14679423198468 2 1 0
5232 836 2 0.418 7.61517271519629 9.954214553941874 15.277171051317458 0 0 -1
4212 666 2 0.418 5.202190683506556 3.8245764737781904 16.923263545701822 2 1 0
1173 160 1 0.04 2.3107983052375833 4.406785272735458 18.852561907561366 1 1 0
4369 693 3 0.145 7.962779213583899 2.5867639642359945 22.877108255194145 2 2 0
286 40 1 0.04 0.9673462126667629 5.408364396193269 28.31575875383425 -1 0 1
378 52 1 0.04 10.322919498610313 2.2386915894576584 17.533519746570402 -1 0 -1
5248 839 1 0.04 1.0499471535013922 6.3804824392916535 15.145453148550157 1 -2 1
1175 160 1 0.04 2.619632586459304 4.6096253600982475 20.653213443141112 1 1 0
3741 588 1 0.04 4.843630972313367 8.171256706499292 25.8141256511854 0 2 0
3742 588 1 0.04 5.90663120613357 9.308607684603626 26.776438480765197 0 2 0
277 39 3 0.145 5.204207285576568 5.893066397651812 22.796045234857438 -1 0 -1
4192 663 1 0.04 9.573448951504552 8.513394033703154 25.731697802170697 1 4 0
380 52 1 0.04 9.218870005205106 1.4257160674590286 18.627093824662488 -1 0 -1
4297 681 3 0.145 7.117923750538994 5.288064108294494 26.625791057678033 0 0 0
6063 975 1 0.04 2.7941727844302564 2.6679325117035546 26.51058912469771 2 0 -1
3629 569 1 0.04 2.2236844956535915 2.384156059296071 20.05264946339322 1 2 -1
1737 254 1 0.04 5.315287510254714 2.2657692465749104 20.948942099657902 1 0 -2
6064 975 1 0.04 4.540557464669542 2.553135862656414 25.909214333970315 2 0 -1
4370 693 4 -0.6830000000000001 7.445539644631311 3.0678182471297846 24.080166116736702 2 2 0
376 52 3 0.145 10.189514947858875 1.997096531896195 18.568671212916612 -1 0 -1
279 39 1 0.04 5.929331761282973 6.469599228469154 22.208205148481568 -1 0 -1
4300 681 1 0.04 7.622135591765361 4.3600605896699385 26.90799865388151 0 0 0
2328 352 2 0.418 10.294009711742175 6.237451267077285 27.67683460448378 0 -2 0
4301 681 1 0.04 6.147241114817209 5.054202094366534 26.165403650403523 0 0 0
287 40 1 0.04 1.3369799442967536 4.344333167291923 26.996967997271064 -1 0 1
1179 161 1 0.04 2.305393629867953 9.0593073557873 28.171486777259766 1 1 -1
3753 590 1 0.04 9.483177141088023 9.913636760082134 23.87982110926626 1 2 -1
1164 159 5 0.418 10.97533648486787 10.230365305165837 19.667225179662896 1 -1 1
2822 435 4 -0.6830000000000001 4.5994701919901235 6.89313361304855 28.33923684477493 2 1 1
4193 663 1 0.04 9.224417839457741 8.187893966031496 27.51563985110917 1 4 0
2286 345 2 0.418 9.97828450767433 7.148260278473971 22.50054524696853 0 1 -1
4298 681 4 -0.6830000000000001 6.998932431563309 6.084396210618529 27.79652716342581 0 0 0
6065 975 1 0.04 3.8600810154125327 3.95507369215012 26.763064611735683 2 0 -1
3752 590 4 -0.6830000000000001 7.507123723816731 9.110946791009685 23.54592842748761 1 2 -1
595 82 1 0.04 2.304942909969138 6.138653398339749 23.93949921356881 0 1 0
3626 569 4 -0.6830000000000001 0.9892050181537434 1.44410746267013 21.18403788671632 1 2 -1
6066 975 2 0.418 2.801388650130221 3.4853531488169804 24.33978297147078 2 0 -1
281 39 1 0.04 4.976199820710484 6.42386197318677 23.73784064106169 -1 0 -1
278 39 4 -0.6830000000000001 5.498874574589776 4.554363505592916 23.128940957092947 -1 0 -1
3755 590 1 0.04 8.129956328717459 10.943407628054128 24.39395468345751 1 2 -1
3740 588 4 -0.6830000000000001 5.0861778757177 9.967267173996396 24.89909911070075 0 2 0
2323 352 3 0.145 10.384768634966601 4.332656404224586 27.38554709227619 0 -2 0
4032 636 2 0.418 1.0865718003555667 2.706589189794768 22.605421904622442 -2 0 1
592 82 3 0.145 2.286770012326266 6.798693844996796 24.773443200202593 0 1 0
594 82 1 0.04 2.8576068397728056 6.285624268964505 25.557911235000248 0 1 0
3744 588 2 0.418 5.974349877438802 9.707373069600768 24.496764371458447 0 2 0
4191 663 1 0.04 9.930940394948797 9.744351988486118 27.052696870960748 1 4 0
3743 588 1 0.04 4.252895622751629 9.586948662267583 26.850516934370024 0 2 0
596 82 1 0.04 2.830937688703795 7.710112784138852 24.56830285782906 0 1 0
4374 693 2 0.418 6.638914435755498 3.5880349669035745 23.9324024112595 2 2 0
3739 588 3 0.145 5.0203269631831695 9.229289233410903 26.12933246581704 0 2 0
3625 569 3 0.145 1.3627900737052632 1.739308464444643 19.915582801049734 1 2 -1
3756 590 2 0.418 7.865258487077931 8.443491588710867 22.957521281900277 1 2 -1
2826 435 2 0.418 5.402589049205319 6.537656947006258 28.036038688846958 2 1 1
6062 975 4 -0.6830000000000001 3.4205228288517424 3.9009278195994974 24.900544769301646 2 0 -1
1680 244 2 0.418 8.464659709121886 1.8131914328088237 25.027849639958262 0 1 -1
4302 681 2 0.418 7.811444423853605 6.047687259786848 28.29958694503775 0 0 0
6061 975 3 0.145 3.651563952031456 3.182127663073603 26.069066039824225 2 0 -1
4028 636 4 -0.6830000000000001 1.1652730826871047 3.0865305270407903 23.50470940797065 -2 0 1
4189 663 3 0.145 9.892976542365469 8.666013552876365 26.782153028764423 1 4 0
2282 345 4 -0.6830000000000001 9.022829718069055 7.047226099394345 22.347043549931858 0 1 -1
4299 681 1 0.04 7.6953654102103775 5.860610344460257 25.950803817229836 0 0 0
1739 254 1 0.04 4.260539061380014 1.4787568389959076 19.74409719423183 1 0 -2
3754 590 1 0.04 8.329011441954279 10.77371998108821 22.704458558229188 1 2 -1
2326 352 1 0.04 9.70670725897436 4.412317910343509 26.494374522869172 0 -2 0
1163 159 10 -0.6830000000000001 10.928637411826395 11.161800554728568 19.579884276529064 1 -1 1
1198 164 1 0.04 7.586030340036929 8.958316618142916 28.327756765332452 2 1 -2
4222 668 1 0.04 3.514013903270117 1.69762526639807 17.118723436973596 0 0 2
5775 927 1 0.04 1.4573424086598923 9.054730266345327 16.496567352433892 0 -1 -1
1676 244 4 -0.6830000000000001 8.902236476592368 1.3182331834116523 25.750820082269172 0 1 -1
4211 666 1 0.04 6.276524117464733 3.593731086284505 15.018758189189342 2 1 0
5394 863 2 0.418 11.140189645856424 7.753661770415127 15.887503830895952 1 1 0
5824 935 1 0.04 11.02223737364365 11.296677647070016 16.160429152042347 1 0 0
1172 160 4 -0.6830000000000001 0.9114533337380601 5.40579383319224 20.14570527946367 1 1 0
6175 994 3 0.145 8.773696953179261 7.4225387091989665 33.03643854065975 1 1 0
4425 702 1 0.04 5.905886604965672 10.330853543813419 32.38526160937376 3 1 0
4620 734 2 0.418 10.570236103104335 8.49228657785898 37.833602522776175 0 -2 -1
6178 994 1 0.04 9.448725445752315 6.639437698818898 33.27203654615739 1 1 0
6179 994 1 0.04 8.273066871828158 7.406942190989437 32.11029723888684 1 1 0
5630 903 4 -0.6830000000000001 5.521616669699218 6.522363434245874 32.97488340628055 3 0 -1
5632 903 1 0.04 4.5487594184635824 8.371060163298798 32.943374801023126 3 0 -1
2877 444 1 0.04 4.0008492130689 11.476560185192078 30.438879358374702 1 2 -1
5629 903 3 0.145 4.714450651844486 7.475881055974957 32.33528192656109 3 0 -1
5631 903 1 0.04 3.7061404342787614 7.006371670199667 32.24413812768297 3 0 -1
758 103 4 -0.6830000000000001 5.452217516666838 1.5747398578602194 39.811878568798775 -1 0 1
5634 903 2 0.418 6.429990461395833 6.921838153565855 33.07924005642543 3 0 -1
5633 903 1 0.04 5.08121104624664 7.708681584239816 31.388737899038635 3 0 -1
4809 766 1 0.04 1.964405991907969 6.935661776513597 34.91291000136921 1 2 -2
4269 676 1 0.04 5.227042455953079 1.4686237793641748 32.24767699138846 1 1 -2
5550 889 2 0.418 4.392533448651463 5.228934476712855 33.77875427339501 1 -1 1
6177 994 1 0.04 9.32369211075186 8.34724548892712 33.01088012151569 1 1 0
6176 994 4 -0.6830000000000001 7.908830933815958 7.584940147682947 34.10301609585113 1 1 0
6180 994 2 0.418 8.444516763622575 7.655245753847792 34.95421472784453 1 1 0
1177 161 3 0.145 1.3912308638408466 8.667445787956723 28.506867504861184 1 1 -1
2891 446 1 0.04 5.774368180171239 11.345323641006354 38.6430472178228 2 0 -1
4424 702 4 -0.6830000000000001 5.233895290794045 11.409262635238282 33.908788334003106 3 1 0
1504 215 1 0.04 7.776327060138358 2.801580032823903 28.757438939196398 1 1 1
5423 868 1 0.04 10.51026502888004 4.385157841936405 40.910573100448374 3 1 -1
986 134 7 0.06 1.0979242288432052 5.088479749909446 33.84438419678908 -1 0 0
869 118 7 0.06 10.521580526200658 2.9571295082012137 34.65816208329669 1 -1 -4
2825 435 1 0.04 4.885704586395801 5.596069369306337 30.016035330232906 2 1 1
867 118 9 -0.18 10.911119427639662 2.136639884424199 34.04136035549615 1 -1 -4
1181 161 1 0.04 1.63358789819236 7.655072485605099 28.48189419374193 1 1 -1
4924 785 1 0.04 10.773020607627643 9.96359345820385 30.72410458320814 -1 0 -1
1506 215 2 0.418 7.900231160932793 2.2280593189913738 31.491394685587164 1 1 1
1501 215 3 0.145 8.187291112882868 2.2105936113178015 29.639127903361878 1 1 1
4642 738 1 0.04 10.984486829270528 3.356098569034068 30.871912352924113 -1 -3 -2
4644 738 2 0.418 11.02025363731004 5.166647654004285 29.774383482572436 -1 -3 -2
1503 215 1 0.04 7.572455391529356 1.335978288929363 29.77659006560591 1 1 1
5267 842 1 0.04 6.062326364438538 6.028033229810943 40.07313961734769 3 1 -2
4922 785 4 -0.6830000000000001 9.327456886539643 10.74166767921186 31.919459704963245 -1 0 -1
3571 560 3 0.145 9.171919940041906 10.851410417042684 35.41090786191023 -1 -1 -2
870 118 7 0.06 10.432014593771523 2.141568210775408 33.04952362255271 1 -1 -4
5546 889 4 -0.6830000000000001 3.961959973000793 4.354979186758751 33.70338809557428 1 -1 1
4921 785 3 0.145 10.573963858425808 10.883278353520678 31.301627250992816 -1 0 -1
4267 676 3 0.145 5.915934873434477 1.5525233365331559 33.05579448101621 1 1 -2
1502 215 4 -0.6830000000000001 8.267660220197222 2.8773471170441356 30.87149235931246 1 1 1
4812 766 2 0.418 1.572416658936679 7.668009488928513 37.010145294417086 1 2 -2
4616 734 4 -0.6830000000000001 11.293894453430097 9.031830029139451 38.27336476618929 0 -2 -1
1196 164 4 -0.6830000000000001 7.661193228208953 10.10221261280203 29.98169829617093 2 1 -2
5263 842 3 0.145 5.821507124853068 5.00951190547114 39.836481290044944 3 1 -2
1523 218 1 0.04 1.3809331614494549 2.6875247163110627 41.26635066107919 1 -1 -1
5422 868 1 0.04 9.52448271317494 5.8065999303826485 40.44713895164308 3 1 -1
3573 560 1 0.04 8.125546653428575 10.575345572039929 35.08818075970767 -1 -1 -2
884 120 7 0.06 7.069231938817981 3.351891951106291 35.55704048661504 -1 1 0
5265 842 1 0.04 6.499578410330321 4.739622577796351 38.99800391895073 3 1 -2
5950 956 1 0.04 10.698301714832533 2.6652264917940247 39.415295420864965 -1 1 1
3576 560 2 0.418 9.766538603029092 11.351869455973773 33.56862886106964 -1 -1 -2
2135 320 1 0.04 1.6643799228351197 1.222798123983552 32.289370369212634 -1 -1 0
2823 435 1 0.04 3.2931357562081596 6.213706330723326 29.87143948697729 2 1 1
2890 446 1 0.04 4.683595893709097 9.965506178706036 38.175083356042165 2 0 -1
2821 435 3 0.145 4.127529602464515 5.931543959575283 29.301150927621027 2 1 1
5266 842 1 0.04 4.810051285339685 4.975169593695133 39.49845694498204 3 1 -2
2824 435 1 0.04 3.7697873770771833 5.14544088019043 28.682142686434773 2 1 1
5268 842 2 0.418 5.731171313095997 3.2854477466685506 40.71516553792496 3 1 -2
1195 164 3 0.145 7.166281776662301 8.979744505170643 29.369455134969005 2 1 -2
1007 138 4 -0.6830000000000001 2.4993381354025113 11.265548722388123 32.69096461261313 0 -2 -3
3574 560 1 0.04 9.669330669877247 9.903244069751004 35.42267879405331 -1 -1 -2
983 134 6 0.06 1.2905947472653567 5.063784903651388 31.228571996073843 -1 0 0
4389 696 1 0.04 9.605291928088866 10.294573903886084 40.74286658575248 -2 1 -1
4618 734 1 0.04 10.538668531291577 10.832267166853768 37.96959195885637 0 -2 -1
4428 702 2 0.418 4.26472338711251 11.351663922289706 33.76226173904436 3 1 0
3575 560 1 0.04 9.172373025181853 11.390764746028214 36.38408066057583 -1 -1 -2
1397 197 1 0.04 1.364798318113188 1.4407620228011842 37.4537508426194 1 2 0
4271 676 1 0.04 5.9955896618903 2.5929586215212117 33.422612921840326 1 1 -2
1505 215 1 0.04 9.169401941210873 1.808602080845398 29.486753383088335 1 1 1
4811 766 1 0.04 3.526774102759826 7.59776325193111 34.95536210930203 1 2 -2
1378 194 1 0.04 8.115077522899924 9.12473180510245 37.74947087505031 2 1 0
1199 164 1 0.04 7.346439839468641 8.01024057674934 29.86398164062722 2 1 -2
1980 294 2 0.418 2.2098856867829584 5.889097500831342 37.60691086189904 -1 3 1
5548 889 1 0.04 4.444047486574982 4.607902655300278 35.61251980886624 1 -1 1
1197 164 1 0.04 6.107886306989411 9.034247473444308 29.268217762953228 2 1 -2
5545 889 3 0.145 3.9760736490203117 3.8525292670267857 34.994997687356374 1 -1 1
5549 889 1 0.04 2.951300018475367 3.68675148815281 35.39772905819257 1 -1 1
4807 766 3 0.145 2.520041542053451 7.662198234988266 35.37588451783219 1 2 -2
2435 370 1 0.04 2.0017945715711485 9.763084128316248 38.944638429774045 -3 2 -2
5261 841 1 0.04 10.315237331812309 1.8642620684973306 41.220316484401664 1 2 -3
2889 446 1 0.04 6.323861215318311 9.752750671370626 38.8611337191024 2 0 -1
5421 868 1 0.04 8.739855997068865 4.170119323952066 40.79410909888493 3 1 -1
1977 294 1 0.04 2.7037009405367356 5.949513874996106 39.722469876380785 -1 3 1
1975 294 3 0.145 2.0293007778712457 5.172863122230165 39.30626022825477 -1 3 1
878 120 10 -0.6830000000000001 9.185224516075742 4.739017822509389 37.666953827782066 -1 1 0
4808 766 4 -0.6830000000000001 2.5137389539549257 7.590267458283969 36.82763280745269 1 2 -2
1979 294 1 0.04 2.181233430327387 4.236417232462206 39.85125145376428 -1 3 1
4926 785 2 0.418 8.556417009704823 10.439739518734918 31.34160320763516 -1 0 -1
5951 956 1 0.04 11.113637135529878 1.418804222374866 38.28835198727748 -1 1 1
1398 197 2 0.418 3.0414330888046006 2.926404651600052 38.001925586683384 1 2 0
1379 194 1 0.04 7.150371622848838 7.845201089051974 37.015734145390326 2 1 0
5547 889 1 0.04 4.606164072397018 3.0471925368450954 35.18714335430697 1 -1 1
4810 766 1 0.04 2.0361842544105846 8.595171212815107 35.08990538727312 1 2 -2
1377 194 1 0.04 7.945066182794173 7.613311773397082 38.6081182705455 2 1 0