LAMMPS data file via write_data, version 29 Aug 2024, timestep = 16210000, units = real

5271 atoms
10 atom types
4542 bonds
8 bond types
6897 angles
10 angle types
5476 dihedrals
7 dihedral types

-0.46279007825710394 39.26485007826034 xlo xhi
-0.1149363014260274 38.85204630141267 ylo yhi
-0.012872607474044173 38.45109260747678 zlo zhi

Masses

1 1.008
2 1.008
3 12.011
4 15.999
5 1.008
6 1.008
7 1.008
8 12.011
9 12.011
10 15.999

Pair Coeffs # lj/charmmfsw/coul/long

1 0.024 2.38761 0.024 2.38761
2 0.046 0.400014 0.046 0.400014
3 0.078 3.65268 0.01 3.38542
4 0.1921 3.14487 0.1921 3.14487
5 0.046 0.400014 0.046 0.400014
6 0.035 2.38761 0.035 2.38761
7 0.024 2.38761 0.024 2.38761
8 0.056 3.58141 0.01 3.38542
9 0.078 3.6527 0.01 3.38542
10 0.1921 3.1449 0.1921 3.1449

Bond Coeffs # harmonic

1 322 1.111
2 428 1.42
3 545 0.96
4 222.5 1.528
5 309 1.111
6 322 1.111
7 428 1.42
8 545 0.96

Angle Coeffs # charmm

1 57.5 106 0 0
2 35.5 108.4 5.4 1.802
3 45.9 108.89 0 0
4 50 106 0 0
5 34.6 110.1 22.53 2.179
6 35.5 109 5.4 1.802
7 34.6 110.1 22.53 2.179
8 35.5 108.4 5.4 1.802
9 75.7 110.1 0 0
10 45.9 108.89 0 0

Dihedral Coeffs # charmmfsw

1 0.18 3 0 1
2 0.24 3 0 1
3 0.14 2 0 0
4 1.13 1 0 0
5 0.16 3 0 1
6 0.18 3 0 1
7 0.16 3 0 1

Atoms # full

1691 224 4 -0.65 4.096762045162746 3.947079750610424 5.444400138392946 2 1 1
4814 653 1 0.09 3.029666922377739 3.011090532953185 1.984087816731067 -3 4 5
1690 224 3 -0.04 5.440916801484469 3.508808941630848 5.080957800070527 2 1 1
1695 224 2 0.42 3.5288997373873743 3.208250969017878 5.168454448369621 2 1 1
4362 578 2 0.42 9.032020703069579 6.227289805349875 1.332459405423603 -3 0 -3
1693 224 1 0.09 6.200418584301039 4.13390667503631 5.602508803185901 2 1 1
1731 229 5 0.43 0.6004156465656934 0.14934841282702616 12.479731219664268 5 3 -1
4389 582 2 0.42 6.797798786751092 1.15133761887359 2.7772188845102073 1 0 1
4385 582 4 -0.65 6.343688561246698 0.6013282611252225 3.5194219816530796 1 0 1
4813 653 1 0.09 2.3985046235561103 4.6404672732147905 1.6727062130621246 -3 4 5
1692 224 1 0.09 5.643239890147167 3.5765827752457624 3.95590633167712 2 1 1
1937 258 4 -0.65 7.70679824532618 2.8402215749687563 1.839374515286997 -1 -2 1
4810 653 3 -0.04 2.6769048786133056 3.6933775287869053 1.1921269249464799 -3 4 5
1209 160 7 0.09 4.480254851506764 8.380517673245645 0.4910289938270217 2 -1 1
4384 582 3 -0.04 7.3451748268492 0.23915320729705175 4.524103786303365 1 0 1
1941 258 2 0.42 8.015196204697766 3.7618719164137056 1.9814941637708332 -1 -2 1
3152 420 4 -0.65 1.0151858479038358 7.66502065003757 4.664156394396669 1 1 0
4812 653 1 0.09 3.4568292906917413 3.8409131493980375 0.36431118215124997 -3 4 5
1876 248 1 0.09 2.401142302305532 -0.0012743101565918374 1.8445390887107802 3 -1 0
3406 451 1 0.09 1.7047659818717231 1.1550696766571082 4.549288619790311 1 -1 3
3403 451 3 -0.04 0.9485386560877118 1.9933697054156467 4.299200349642882 1 -1 3
3151 420 3 -0.04 2.37792556000904 7.283892521903472 4.388472317929043 1 1 0
730 99 3 -0.04 -0.2613651593292251 5.804321391354503 1.8161341126759958 1 1 4
4358 578 4 -0.65 8.591701538123235 5.915745801764283 2.1491690228582896 -3 0 -3
1936 258 3 -0.04 6.509510769313111 2.921073722509418 1.1268104991723824 -1 -2 1
2821 377 6 0.09 0.49978104789442035 9.150530437869236 1.0403433365289165 -2 0 3
1694 224 1 0.09 5.763858115267913 2.4847626961839486 5.47360633210101 2 1 1
731 99 4 -0.65 -0.02265399547389957 5.41744662783344 3.1831458576037046 1 1 4
5147 709 4 -0.65 8.001258349249149 2.5047124558985696 11.277529546378934 5 1 -2
5169 712 2 0.42 2.761184713595778 0.7681870075906151 11.290972431953325 0 5 1
3496 463 7 0.09 7.166836090921924 0.2760351035212196 0.9917792044122036 0 -2 2
141 18 7 0.09 3.6918601442523897 5.017965611974976 12.469149041459922 -1 0 2
4388 582 1 0.09 7.746419833556745 1.0884073766697264 5.020290052804905 1 0 1
661 89 1 0.09 9.437713043800404 8.767917888812923 9.5436448652561 0 0 -2
1940 258 1 0.09 6.894293686289198 3.1953469711443225 0.028673711890353663 -1 -2 1
5230 723 3 -0.04 9.187996739275 1.9318017136396448 7.6492148474676815 2 0 0
4079 542 10 -0.66 0.2831574723127154 3.0954014472912594 7.369759766357682 -3 0 0
5234 723 1 0.09 8.407920140614586 1.546554891344539 8.417099524342303 2 0 0
4656 627 1 0.09 4.043540063199689 0.9437074836953516 7.691101391018451 -5 2 6
3407 451 1 0.09 0.08044144632659855 1.856159207582241 4.870233389932945 1 -1 3
4527 605 2 0.42 5.550724063399309 7.202035937977208 9.350912403379693 1 -3 1
4082 542 6 0.09 1.7506071316265257 4.513410932940854 7.418710776207505 -3 0 0
3405 451 1 0.09 0.6730489443994898 2.148480528679139 3.2661056578472456 1 -1 3
4360 578 1 0.09 9.063581686346335 7.740748750069196 2.7446996517573186 -3 0 -3
3154 420 1 0.09 2.893536980150603 7.105843201675769 5.339955552928248 1 1 0
5233 723 1 0.09 8.63064612143614 2.126148711510818 6.750507908740798 2 0 0
4078 542 8 0.05 1.1759198825522523 3.865172688305267 8.111213501652237 -3 0 0
4081 542 6 0.09 0.5961358011687201 4.506040878513869 8.754890410212687 -3 0 0
3723 494 1 0.09 6.947263912233647 5.548774014962658 7.8551115089526276 2 1 1
3721 494 3 -0.04 6.163979553741687 5.352591219477013 8.592359746226615 2 1 1
3724 494 1 0.09 6.553853527621806 5.640979378769189 9.495870786769466 2 1 1
3725 494 1 0.09 6.125060474212309 4.293315070957613 8.769665408337332 2 1 1
3153 420 1 0.09 2.9931296157176166 8.076617795212321 3.923867560374692 1 1 0
4357 578 3 -0.04 9.092526733950596 6.7350071123454995 3.1967375649549346 -3 0 -3
4525 605 1 0.09 4.385656190327651 8.531469011628456 11.679729705250644 1 -3 1
3421 453 1 0.09 2.5803431354923925 8.365789525081656 9.041030109119047 -1 -3 -4
4361 578 1 0.09 8.64452577953115 6.633172377327938 4.231732335870493 -3 0 -3
4811 653 4 -0.65 1.4922045276410725 3.22042157153741 0.5683399715197929 -3 4 5
3419 453 4 -0.65 1.1051926637174698 7.486572406561652 10.40095374975291 -1 -3 -4
2716 363 1 0.09 8.596001697858119 6.119924003866567 10.311879769524005 -1 0 -2
1939 258 1 0.09 5.9116663595954275 3.7443367200439286 1.5962351961774501 -1 -2 1
4659 627 2 0.42 4.591786443579651 0.1403033836067608 9.862320856501023 -5 2 6
1938 258 1 0.09 5.865347400774776 1.9811283250393932 1.1568464998642725 -1 -2 1
3404 451 4 -0.65 1.4302277484411894 3.229618183150127 4.748169640497591 1 -1 3
3156 420 2 0.42 1.15114697802368 8.420691228282948 5.290105783040854 1 1 0
4524 605 1 0.09 5.468901078580286 7.109248842563505 11.921730654497507 1 -3 1
5146 709 3 -0.04 7.933282304368772 2.841990779769453 12.630955165195829 5 1 -2
4523 605 4 -0.65 5.542452028356939 7.952086832081623 9.993450328987134 1 -3 1
3726 494 2 0.42 4.437404993504544 5.424618788114968 7.632225837476361 2 1 1
3722 494 4 -0.65 4.949983986336343 5.955347722171239 8.235242865156202 2 1 1
3423 453 2 0.42 0.1573554631620887 7.32716215200596 10.123193758015743 -1 -3 -4
3422 453 1 0.09 2.2024455288322744 6.435546929834241 9.013030007965066 -1 -3 -4
135 18 5 0.43 1.5970728423223974 6.7212042273587995 11.990936425984708 -1 0 2
663 89 2 0.42 6.974748378016625 8.888305252276982 10.369226733527837 0 0 -2
4086 542 7 0.09 2.520858419983295 2.2305190170875986 8.137532431473868 -3 0 0
3420 453 1 0.09 1.1825989566226012 7.671864900481652 8.256604093260515 -1 -3 -4
4522 605 3 -0.04 4.8382430745844625 7.572603313225669 11.178888853770257 1 -3 1
4084 542 7 0.09 1.4522142455510354 2.1241079880179856 9.436017209861458 -3 0 0
140 18 7 0.09 2.6653536219939147 3.5624369051208196 12.444733771081642 -1 0 2
139 18 7 0.09 2.4628549093385557 4.918028591558523 11.205386961831959 -1 0 2
138 18 9 -0.27 2.6458250490040522 4.653635249126866 12.256270660701727 -1 0 2
735 99 2 0.42 0.3488639093905732 6.204853639224883 3.676831276377223 1 1 4
5165 712 4 -0.65 2.8553558297901365 0.9446818007113551 12.270829178677614 0 5 1
3418 453 3 -0.04 1.813995358185458 7.499008032688012 9.123544371317502 -1 -3 -4
4526 605 1 0.09 3.9194526706402035 6.98841163456018 10.922092418684985 1 -3 1
2588 347 4 -0.65 6.099727924327104 0.8172217522877642 10.255228340797482 -1 3 -4
4085 542 7 0.09 2.789181314375644 3.253589678780647 9.690223092331406 -3 0 0
1606 212 1 0.09 6.634694482055683 8.637100929289632 6.333267357896472 0 -1 0
659 89 4 -0.65 7.796463500952433 9.277694764398412 10.737463449607958 0 0 -2
3408 451 2 0.42 0.7172866909662243 3.7664852170507515 4.358396231545434 1 -1 3
1877 248 1 0.09 3.3212950283749727 0.3831269632358036 3.4110652196321234 3 -1 0
3155 420 1 0.09 2.430890640306891 6.300626377381979 3.8579362792130043 1 1 0
5137 707 1 0.09 6.339666329859881 8.758371274819273 1.2699264934500316 -2 4 0
2592 347 2 0.42 6.708970033347794 1.470326412638578 10.639449174123822 -1 3 -4
732 99 1 0.09 0.6040198073024563 6.105626639197278 1.2126819700157183 1 1 4
4083 542 9 -0.27 2.059985642371385 2.856016058155182 8.952206463676292 -3 0 0
5151 709 2 0.42 8.575020589227066 3.1655607324513126 10.825113615034995 5 1 -2
4080 542 5 0.43 0.7712232329212065 3.0137411320095726 6.472082685444571 -3 0 0
4836 657 1 0.09 2.0650473357468613 9.52779679182993 12.332886926568563 -1 3 1
5136 707 1 0.09 7.695924060534008 9.27699679036937 2.1674394726643342 -2 4 0
4654 627 3 -0.04 4.025582945704832 -0.10505551396148152 8.145603601801211 -5 2 6
5149 709 1 0.09 8.191953403682156 3.9084559945424875 12.753394748489056 5 1 -2
1039 140 8 0.05 4.17619411053708 5.069325842449933 16.596735130809858 1 -4 0
1040 140 10 -0.66 4.882735483786108 4.551887451789529 15.44131536957315 1 -4 0
1044 140 9 -0.27 4.435657220729002 4.301591339032587 17.865940721127934 1 -4 0
1046 140 7 0.09 5.550507741897254 4.189343508892688 17.99479475353045 1 -4 0
1047 140 7 0.09 4.155008374718225 3.2085418358856836 17.807553734169932 1 -4 0
1043 140 6 0.09 4.511307616082816 6.05940393332715 16.762952998232166 1 -4 0
1041 140 5 0.43 4.252575163621361 3.860770155621344 15.110624841432537 1 -4 0
294 38 2 0.42 2.7832423781365616 1.7947801087500175 13.813172839799272 -4 -3 0
290 38 4 -0.65 2.797558074154916 2.4748139063568 14.587336922626989 -4 -3 0
3204 426 7 0.09 6.907043644622124 7.196606403002456 15.77126127018325 0 1 -1
5148 709 1 0.09 8.689269620718859 2.271089603234576 13.067426299739635 5 1 -2
1045 140 7 0.09 3.8957468147243564 4.765309971252775 18.767376407601997 1 -4 0
4209 559 1 0.09 0.8938400968754145 3.1977608687314807 18.937068818316565 1 -2 -1
289 38 3 -0.04 1.670707140885355 2.238610866579295 15.408098834167486 -4 -3 0
3586 475 6 0.09 6.556584406190808 0.3058776220323499 21.52919476762653 1 3 2
1042 140 6 0.09 3.0515102552578006 5.098844225195947 16.35331706446607 1 -4 0
2392 320 3 -0.04 3.496591166500116 0.6574031752503537 18.813906868190735 -1 1 -1
2394 320 1 0.09 3.045871606132174 1.2574315621245609 18.025152787034333 -1 1 -1
291 38 1 0.09 1.7922542008721032 2.8997138621699103 16.322053022849797 -4 -3 0
4211 559 1 0.09 2.375236282575644 3.235119783929252 20.114770433721155 1 -2 -1
292 38 1 0.09 0.7301161199181923 2.5197791483026024 14.80218648881656 -4 -3 0
3201 426 9 -0.27 6.771304324804066 7.482303558984734 14.677334929370403 0 1 -1
4863 661 2 0.42 0.16427886791817026 7.927242870750657 13.89689670218885 0 1 3
4839 657 2 0.42 2.9561339638797848 7.9506813526397035 13.791532777987628 -1 3 1
4835 657 4 -0.65 3.3263610323488155 8.832966328196761 14.041054332874277 -1 3 1
3049 406 3 -0.04 0.9895309521994216 6.276603612347691 23.03463879398333 -4 -4 1
244 31 7 0.09 2.633148713971835 7.8681029321744855 17.69083170404126 3 1 0
4860 661 1 0.09 0.7904278584930793 6.589857212229289 15.660046195293834 0 1 3
293 38 1 0.09 1.5423592435759343 1.1615757883699094 15.736241216698758 -4 -3 0
2395 320 1 0.09 3.9340385810344145 1.3517597166276565 19.525303470513443 -1 1 -1
137 18 6 0.09 2.1745421568786716 5.035655015351976 14.336433385489121 -1 0 2
2571 344 1 0.09 9.320016555161395 3.9732523164080202 18.612522037631756 -2 0 -1
897 121 9 -0.27 7.776523834409691 2.7709735629938392 25.590544907296582 1 0 2
1453 192 1 0.09 1.2035160962649847 3.1805050044838703 25.30070681511021 -1 2 1
1318 174 8 0.05 5.559323883123615 4.719984094502021 21.547801770225067 0 -1 -2
3050 406 4 -0.65 0.4991670227853455 7.621696303226751 22.95357742971182 -4 -4 1
1326 174 7 0.09 4.481563613190087 2.921642221259764 20.91019026492554 0 -1 -2
2179 291 1 0.09 6.181973208635689 5.533090444625723 24.507720157729842 -2 2 1
4210 559 1 0.09 0.6240731799849266 4.0537014946290775 20.47633398613278 1 -2 -1
3053 406 1 0.09 0.6302430859584813 5.921200099109037 24.02441778003573 -4 -4 1
49 6 7 0.09 8.758995875471555 8.78294976110932 18.11578414010815 -1 2 -1
2176 291 3 -0.04 5.2675325893234906 5.470203388749387 25.150893905408925 -2 2 1
2872 384 6 0.09 9.038775374059739 1.6283685622944724 16.90211539980601 2 -2 3
4858 661 3 -0.04 -0.26727703216585597 6.878032472400241 15.481237874614534 0 1 3
3202 426 7 0.09 7.554031569389107 6.98676565122887 14.142163108795717 0 1 -1
242 31 6 0.09 2.1994746069123496 7.433700982596768 20.733736644167987 3 1 0
2876 384 7 0.09 9.154322041767625 0.3433533831470242 14.79652772968054 2 -2 3
3051 406 1 0.09 0.47431051688026304 5.703929757776635 22.18332811748174 -4 -4 1
3203 426 7 0.09 5.868695939360894 6.981624911148173 14.324680081713883 0 1 -1
2396 320 1 0.09 4.353643374539364 0.024047918506719362 18.47085764458892 -1 1 -1
133 18 8 0.05 1.7409390664598123 5.264711770582043 13.292339309688948 -1 0 2
3588 475 9 -0.27 8.207154439333681 0.6857146462038884 20.10035748892852 1 3 2
2393 320 4 -0.65 2.4930148589872263 -0.028175800927942682 19.563442574805816 -1 1 -1
134 18 10 -0.66 1.622504901088495 6.65019763007912 12.987979771267979 -1 0 2
5150 709 1 0.09 6.975350704789636 2.5165917314863093 13.108075152069212 5 1 -2
1322 174 6 0.09 5.842939206671273 5.034170066966581 20.482656646206202 0 -1 -2
246 31 7 0.09 2.1305129092542274 6.390371040876475 18.41188059652238 3 1 0
243 31 9 -0.27 2.1055233353573377 7.492335629249655 18.551223608454173 3 1 0
245 31 7 0.09 1.0913567607728296 7.927477592035174 18.4783099093723 3 1 0
3054 406 2 0.42 -0.3883935108902516 7.649065751491738 22.485825892761085 -4 -4 1
4207 559 3 -0.04 1.2259362519352988 3.22443344015564 20.045649252273304 1 -2 -1
4212 559 2 0.42 1.1788057414761004 1.3864699777368334 20.18821633324487 1 -2 -1
3052 406 1 0.09 2.0668216041304377 6.213745316575421 23.055196078749496 -4 -4 1
3196 426 8 0.05 6.906947220438806 9.008311998985418 14.612231949191214 0 1 -1
1321 174 6 0.09 6.3229961132999195 4.885223796362754 22.32389348072934 0 -1 -2
3584 475 10 -0.66 8.196544243458119 1.4781410824507253 22.330544441091924 1 3 2
3200 426 6 0.09 6.83229586019162 9.306849878160463 13.547183674787995 0 1 -1
1324 174 7 0.09 5.06250868515347 2.922006089638419 22.649834588340948 0 -1 -2
3583 475 8 0.05 7.685838372999184 0.3880128724723678 21.54222190330448 1 3 2
893 121 10 -0.66 7.1556388877594 0.5724924591737374 24.950141028200353 1 0 2
4859 661 4 -0.65 -0.3282492212252901 8.124898626604853 14.672259170824393 0 1 3
2181 291 2 0.42 4.216967161556642 4.831420577302545 23.724752496682072 -2 2 1
900 121 7 0.09 7.719593650898894 3.2478649241411675 24.60989093033904 1 0 2
3591 475 7 0.09 7.663676115485918 1.5945292948401104 19.787638796169606 1 3 2
4691 633 4 -0.65 5.3400845223184605 9.359703155350958 18.320270023540882 1 -1 0
1319 174 10 -0.66 4.3678421524063005 5.410427952298737 21.904704652382996 0 -1 -2
240 31 5 0.43 4.445426578878229 8.168110678424297 19.265325595623075 3 1 0
2180 291 1 0.09 4.778465057066853 6.460424774337191 25.39416824634489 -2 2 1
3199 426 6 0.09 7.836195254114083 9.360521146872674 15.100767431049661 0 1 -1
209 27 1 0.09 7.304197639195181 8.223672503549134 21.292451448967473 0 -1 2
238 31 8 0.05 2.7532671722660322 7.899580105713667 19.841390878843175 3 1 0
3590 475 7 0.09 9.317774871060802 0.8174637616294709 20.01543633189096 1 3 2
2572 344 1 0.09 8.758820088998844 3.771605688285023 20.27255635536025 -2 0 -1
3585 475 5 0.43 7.823120310752245 1.4152498119900245 23.30120747445417 1 3 2
239 31 10 -0.66 4.118413887115547 7.494229119603808 19.873341369857147 3 1 0
205 27 3 -0.04 7.76212671276169 8.802059826416935 22.1462091064327 0 -1 2
1320 174 5 0.43 4.183310969782356 6.211221731006643 21.33034596274829 0 -1 -2
207 27 1 0.09 7.331922749687829 8.481267725425365 23.084617364648324 0 -1 2
241 31 6 0.09 2.702750019593792 9.001484865681515 20.0743008364833 3 1 0
4208 559 4 -0.65 0.6358521328736568 2.044086933989505 20.67897350074389 1 -2 -1
1323 174 9 -0.27 5.324661509536719 3.219489360180817 21.591800877165593 0 -1 -2
1325 174 7 0.09 6.234531401934211 2.666284691012442 21.205564204746143 0 -1 -2
206 27 4 -0.65 9.163006025103158 8.678101834027112 22.138258847487826 0 -1 2
2177 291 4 -0.65 4.380970777218782 4.459786523254089 24.640324356887284 -2 2 1
3197 426 10 -0.66 5.838902762178411 9.573646336333097 15.350896078605674 0 1 -1
3198 426 5 0.43 5.039511685208578 9.24561158685606 14.795419129564573 0 1 -1
136 18 6 0.09 0.7633064601342718 4.690476606563829 13.253804452054455 -1 0 2
1730 229 10 -0.66 -0.086728598697834 0.20935983189087565 13.078282914531412 5 3 -1
4695 633 2 0.42 5.537069144913446 9.301486056970356 17.35689633629074 1 -1 0
1455 192 2 0.42 3.3037463191620318 3.172510895523711 25.493239469463962 -1 2 1
210 27 2 0.42 9.464101023872113 9.128055072713323 21.299199544185015 0 -1 2
4206 558 2 0.42 9.439449212140508 7.8471871808045135 23.95270032501766 3 0 1
5029 689 1 0.09 3.2137229911034098 3.0726787853510054 29.10020510201583 -1 3 3
5027 689 4 -0.65 2.3177355914047815 3.884942817279166 30.828556736793484 -1 3 3
708 96 5 0.43 2.5729684150523884 2.0913642780910706 31.269452736979098 -1 -1 -1
707 96 10 -0.66 2.8247811126141316 1.1672334849038368 31.40848954157439 -1 -1 -1
5030 689 1 0.09 2.1979094944446063 4.454590705572281 28.8978788294801 -1 3 3
5031 689 2 0.42 1.9043839364316724 4.756278786393205 31.066873895613927 -1 3 3
380 51 10 -0.66 9.102224156015883 7.272305504170125 28.91195445522176 -1 -1 -1
5026 689 3 -0.04 2.9083132518971535 4.086500151335053 29.57418426228163 -1 3 3
16 3 8 0.05 8.12730799065277 2.502333867242278 29.99000024278222 -1 -1 2
83 10 7 0.09 0.9017742818096759 3.517069729108786 34.70497559858413 -1 0 -5
2122 284 6 0.09 9.17587376565609 6.925096523401438 36.20102553430634 3 1 0
1193 159 10 -0.66 6.550968778724948 8.874904362169108 32.98689276095293 -1 2 -1
2688 360 5 0.43 7.648694345575976 8.162113187784175 28.684522814466927 -1 1 -3
2021 270 1 0.09 0.18461073252057436 6.460201307677745 27.001810409352952 -2 0 -3
4471 596 1 0.09 2.5306296559954933 9.564062265929957 32.64154838023738 1 -1 -3
24 3 7 0.09 7.7232646151655615 3.475828728373506 28.167973259212204 -1 -1 2
23 3 7 0.09 6.124638984853282 3.3040452450108413 29.160431408791716 -1 -1 2
21 3 9 -0.27 7.274396444182344 3.4948343192499185 29.176874280402753 -1 -1 2
22 3 7 0.09 7.532285239080933 4.482616409614429 29.58487214100524 -1 -1 2
17 3 10 -0.66 8.03715183029277 1.2000991863721675 29.491173036018704 -1 -1 2
18 3 5 0.43 7.079617103133429 1.0015855689785562 29.446663994787684 -1 -1 2
5028 689 1 0.09 3.758196294907391 4.750970748390277 29.63498784837753 -1 3 3
20 3 6 0.09 7.899114086671844 2.5114432211731543 31.069774435554386 -1 -1 2
1452 192 1 0.09 1.2095545747981988 2.7896293850348006 27.13188748401021 -1 2 1
867 117 5 0.43 1.0133388516971935 6.645729768240833 29.949803825428138 -2 -1 -2
1126 150 1 0.09 6.115855678572815 5.77019857706732 31.22375919439925 1 -1 -3
1201 160 8 0.05 4.162884727791584 8.361783004889118 36.813629105622326 2 -1 0
2022 270 2 0.42 2.610563814096437 6.879475919456097 28.397131312628513 -2 0 -3
2687 360 10 -0.66 6.757514091642096 8.319614069304432 28.261321003577017 -1 1 -3
866 117 10 -0.66 0.8387506160551195 6.225924238864817 30.79855267768469 -2 -1 -2
1192 159 8 0.05 7.335880304825492 9.44898946002248 34.05545899479062 -1 2 -1
706 96 8 0.05 2.2966871252258603 0.6747242607239917 32.62897946564056 -1 -1 -1
2686 360 8 0.05 7.176172177876924 8.955175061106319 27.04819645819733 -1 1 -3
1438 190 1 0.09 5.288507400588092 -0.07535126263113175 27.774954162978922 2 4 -3
3492 463 5 0.43 7.085280707003035 0.028362582406734477 35.78927242339294 0 -2 1
3577 474 3 -0.04 4.495909763646029 8.032229487724319 30.07351652182711 2 -1 -1
3564 472 1 0.09 1.6071143639072658 1.4847247246009994 35.7244032630598 3 -1 1
1440 190 2 0.42 4.599406385070104 0.795814368346261 30.533192575721202 2 4 -3
1437 190 1 0.09 3.9870682965072124 1.1617392952109795 28.284714102339716 2 4 -3
1196 159 6 0.09 6.696670237035989 9.406095682231568 35.01236655824253 -1 2 -1
3578 474 4 -0.65 4.314500610083418 7.41639431624336 28.772271848864417 2 -1 -1
3581 474 1 0.09 5.559205835610274 7.906171764830752 30.40664774954722 2 -1 -1
896 121 6 0.09 5.808291700369045 1.8901192486921663 25.96484246051847 1 0 2
1454 192 1 0.09 1.0139416753904453 1.4134225757063081 25.78634382739557 -1 2 1
1127 150 1 0.09 5.529863931242733 4.3186221483520075 32.278138693163314 1 -1 -3
2127 284 7 0.09 7.618608878646182 5.382694632724576 37.55619473539479 3 1 0
1123 150 3 -0.04 5.633974990726667 5.372898084921484 32.1955834772677 1 -1 -3
385 51 7 0.09 8.981584810109291 8.578752120171483 31.12577195442044 -1 -1 -1
178 23 1 0.09 6.570489438456977 0.3294141796626215 32.01974771593126 -1 -2 -1
1125 150 1 0.09 4.594618866190136 5.761621702253854 31.99663344971919 1 -1 -3
4890 666 1 0.09 4.79147114294765 2.538520447906437 34.89736837688757 2 4 1
3563 472 4 -0.65 2.329936923810524 0.9469463705490149 37.5689330825198 3 -1 1
1436 190 4 -0.65 5.259594800397547 0.6036311592411194 29.773743997437826 2 4 -3
709 96 6 0.09 1.1487069396994336 0.8678560365674591 32.618174517676024 -1 -1 -1
3582 474 2 0.42 5.069257769668866 7.515597704743532 28.224399058642067 2 -1 -1
2020 270 1 0.09 1.8414192144865629 5.7178884769454426 26.744967490445156 -2 0 -3
177 23 1 0.09 6.4255267147089565 1.339254415919085 33.482367215444576 -1 -2 -1
3494 463 6 0.09 5.319773092027884 0.20670883858615458 37.42239049202852 0 -2 1
895 121 6 0.09 7.102249656675753 1.2353883333590105 26.906539337970308 1 0 2
2178 291 1 0.09 5.574635249078312 5.219228520798526 26.21593360900719 -2 2 1
2018 270 4 -0.65 1.6349065670963103 7.035684338062195 28.401259679974157 -2 0 -3
2690 360 6 0.09 8.231327744551614 9.27259061820954 26.919895726394632 -1 1 -3
2125 284 7 0.09 6.899816765858437 6.403906950028141 36.17161675801428 3 1 0
4470 596 1 0.09 0.8117081842774303 9.215700998607355 32.0851547351944 1 -1 -3
3909 518 2 0.42 3.053359412908372 -0.04763038729533382 25.986669069364595 0 3 2
1194 159 5 0.43 6.289719318811216 7.968180912890912 33.15409971311816 -1 2 -1
76 10 8 0.05 1.6365997505762033 5.597362882257473 34.83834171230596 -1 0 -5
899 121 7 0.09 7.713603605381721 3.600493477473762 26.315699378598918 1 0 2
4472 596 1 0.09 1.8032093762262607 7.895815909037671 32.66072027402272 1 -1 -3
2126 284 7 0.09 6.7503544354546765 6.804437916427487 37.84623169774475 3 1 0
1202 160 10 -0.66 3.017642315643656 8.526217139585222 36.00606682076268 2 -1 0
3179 423 1 0.09 8.791830170053462 2.0751788948619505 36.08177841478495 -2 -5 -2
1207 160 7 0.09 3.0712155301494026 7.458952986584443 38.355671872516304 2 -1 0
4893 666 2 0.42 4.913605731006839 4.908930019920884 34.72714205765005 2 4 1
710 96 6 0.09 2.8870828845254435 1.1547036504077421 33.48853877031067 -1 -1 -1
2119 284 8 0.05 8.566951659793324 7.355877603139372 37.07289112841475 3 1 0
1920 255 2 0.42 9.362772469681182 4.438538137644654 33.57659594553817 -1 -3 -1
82 10 7 0.09 1.1914794940931643 4.390219494942097 33.18641842919161 -1 0 -5
3579 474 1 0.09 4.195769321060206 9.111075737638831 29.86201496915066 2 -1 -1
3562 472 3 -0.04 1.5123396360780854 0.690006360735854 36.47465143306092 3 -1 1
892 121 8 0.05 6.867076145904889 1.619720769301915 25.929957907171612 1 0 2
1124 150 4 -0.65 6.181923962019541 5.933144090710148 33.399875872469735 1 -1 -3
4468 596 3 -0.04 1.6417524489094233 8.966798265850437 32.7608873155553 1 -1 -3
3567 472 2 0.42 2.0926140454252664 1.6888695465188386 38.171692866228554 3 -1 1
19 3 6 0.09 9.189637061848074 2.8000342315031213 30.03607852528817 -1 -1 2
2019 270 1 0.09 1.5183681799529511 7.457271911693235 26.495428411213556 -2 0 -3
81 10 9 -0.27 1.5912340700660526 4.197946676765541 34.16979143476321 -1 0 -5
4891 666 1 0.09 6.1804454887365745 3.05303230102451 35.84768028719001 2 4 1
1195 159 6 0.09 8.2517513445716 8.802995485812378 34.218193170655596 -1 2 -1
1128 150 2 0.42 7.048013052553083 5.499245337761529 33.51773554859888 1 -1 -3
175 23 3 -0.04 6.1544077441410865 0.3065574916743921 33.0802445018272 -1 -2 -1
4815 653 2 0.42 1.2563109860404436 3.9248602660876077 38.366141587511834 -3 4 4
4889 666 4 -0.65 4.7295003427645605 4.550148886061968 35.585485619832035 2 4 1
2124 284 9 -0.27 7.395970880752598 6.376941871348476 37.120153043048965 3 1 0
4892 666 1 0.09 4.576453865818223 2.6618084750291837 36.6641686802144 2 4 1
80 10 6 0.09 0.6617771164421442 6.098276803971504 34.72383705238676 -1 0 -5
1916 255 4 -0.65 8.721081152439949 4.926856816720445 33.022436167613606 -1 -3 -1
2017 270 3 -0.04 1.231091825039356 6.575995543994259 27.100410344205006 -2 0 -3
179 23 1 0.09 5.019641445407482 0.24696379609135066 33.07231311784677 -1 -2 -1
78 10 5 0.43 2.8623105348247697 5.181884102777433 36.282361382574535 -1 0 -5
4473 596 2 0.42 1.9448938603220727 9.221588590278435 34.60867780750321 1 -1 -3
1203 160 5 0.43 2.3064549859611145 8.023565986787647 36.536350174929446 2 -1 0
77 10 10 -0.66 1.9282630135857879 5.408596737216288 36.22780766927587 -1 0 -5
1451 192 4 -0.65 2.9708976770392286 2.362015079133516 25.976551913587905 -1 2 1
4888 666 3 -0.04 5.106677631528586 3.1466586614471734 35.79085912663421 2 4 1
79 10 6 0.09 2.557534709362442 6.151018833441833 34.35996829152786 -1 0 -5
84 10 7 0.09 2.6635611805976622 3.8300369932199665 34.168428324795144 -1 0 -5
4469 596 4 -0.65 1.1418855368057121 9.149632318792277 34.07304191652768 1 -1 -3
3566 472 1 0.09 0.45219324779045267 0.7133136718376308 36.673827008000146 3 -1 1
1435 190 3 -0.04 4.585988188753648 0.19691562336210872 28.611744760324807 2 4 -3
2123 284 6 0.09 8.296421567739939 8.40232550215579 36.96600364451319 3 1 0
1918 255 1 0.09 8.668399412826613 6.7573971457269515 31.82494403475753 -1 -3 -1
1450 192 3 -0.04 1.5161684504401836 2.402151508754668 26.09125132200865 -1 2 1
1205 160 6 0.09 4.553432085848747 7.338506157117339 36.64326717236427 2 -1 0
3580 474 1 0.09 3.8353636466998333 7.563740516837692 30.748290509191076 2 -1 -1
3086 410 1 0.09 0.18672397064104507 1.1261272496598207 28.997712313153265 -1 0 -1
2689 360 6 0.09 6.865360017891998 8.353953279887614 26.12283555320165 -1 1 -3
1204 160 6 0.09 4.978190909030784 9.09418944267598 36.647447995703594 2 -1 0
3177 423 1 0.09 8.907673095007718 1.3855722978282412 34.47456088425216 -2 -5 -2
3175 423 3 -0.04 9.458798453414202 1.7650128867342365 35.30654563614665 -2 -5 -2
1206 160 9 -0.27 3.635049790484743 8.405988320896522 38.27410913516202 2 -1 0
2120 284 10 -0.66 9.192053004707295 7.200066216118272 38.27847262658953 3 1 0
1208 160 7 0.09 2.9572228304611263 9.274731907456301 38.426620361692535 2 -1 0
1915 255 3 -0.04 9.316092203619824 6.052674070664091 32.38863099451824 -1 -3 -1
381 51 5 0.43 9.332392630802305 6.535301040698766 28.374084117020224 -1 -1 -1
2824 377 7 0.09 -0.22859257271380826 9.269680936737526 37.07165195255289 -2 0 2
3491 463 10 -0.66 7.394068051659677 -0.03151578730455809 36.727277197578935 0 -2 1
898 121 7 0.09 8.841477229929383 2.5439091658807818 25.63749315515572 1 0 2
295 39 3 -0.04 3.0287190464946314 11.84151126312212 1.2012386285625096 0 1 1
296 39 4 -0.65 4.339653950423269 11.888515931000386 0.7733617260549364 0 1 1
300 39 2 0.42 4.851805334653574 11.48122846755792 1.534687128157768 0 1 1
1596 211 5 0.43 1.789194312566233 18.872862060375315 8.348404639126969 -1 -3 -1
5135 707 4 -0.65 5.948037178324437 10.438754067684812 2.438072652340811 -2 4 0
298 39 1 0.09 3.063836787811396 12.35196950814376 2.2224928447387837 0 1 1
1909 254 3 -0.04 6.5346804595983174 14.251090840464357 2.6633788434257664 1 -2 0
1911 254 1 0.09 6.766717010088326 13.127399138663087 2.6987364625732546 1 -2 0
1913 254 1 0.09 5.627518461427186 14.236202315355408 2.0542685971518875 1 -2 0
5138 707 1 0.09 7.005430168814132 10.291748109882299 0.7188677080134679 -2 4 0
1910 254 4 -0.65 7.599438220475484 14.980152298384507 2.0456123575957 1 -2 0
1914 254 2 0.42 7.55893686480295 15.902326321235186 2.3172838239271227 1 -2 0
2045 274 10 -0.66 7.40892527432129 17.963152583401993 5.760628886692026 1 3 -1
1890 250 2 0.42 7.890172583008015 17.753306229110837 3.936276332686307 1 2 3
3505 464 7 0.09 4.427739362338006 12.481512117655088 6.236193958402182 1 1 -2
2046 274 5 0.43 6.831029525283775 17.262407632378157 6.122068251567403 1 3 -1
1912 254 1 0.09 6.291665072015247 14.59028610252446 3.7495211693448938 1 -2 0
1886 250 4 -0.65 8.416135623536873 17.553228980824894 3.1624887271328563 1 2 3
1996 267 3 -0.04 0.8241949483821172 17.208572544430478 3.710620239380401 3 -2 -1
1599 211 9 -0.27 2.558143820512356 19.08907992167034 11.423256558487454 -1 -3 -1
1885 250 3 -0.04 8.495232431173013 18.65333927293906 2.199132148476617 1 2 3
2808 375 7 0.09 5.994114596074336 16.00835720424228 12.480255021018007 0 1 4
3474 460 2 0.42 0.051355262695468196 15.449842691165227 0.9850317970075952 3 2 -2
2822 377 6 0.09 0.3415304531636114 10.971177632976168 1.2956327392318765 -2 0 3
1595 211 10 -0.66 1.7824977241704199 18.467786145673468 9.191248222596261 -1 -3 -1
2000 267 1 0.09 1.6187237785235733 16.661975318886718 3.135014483382237 3 -2 -1
3657 484 2 0.42 9.413502509757958 14.151398785994422 0.7665724050673552 0 4 3
3469 460 3 -0.04 0.17909153436133263 14.172087778635762 2.4907050689121335 3 2 -2
3471 460 1 0.09 1.0151948387591414 14.85945519749228 2.715192890938575 3 2 -2
297 39 1 0.09 2.662012584061552 10.812468982332701 1.2307958251597715 0 1 1
1468 194 7 0.09 3.2585090819944527 15.322089419796868 1.665104942623202 2 -2 2
2805 375 9 -0.27 5.460212288942751 15.553751716009161 11.606167115634127 0 1 4
3507 464 7 0.09 3.17669884196417 11.44313346309247 5.288391564542076 1 1 -2
3473 460 1 0.09 0.5405770960359688 13.147994246714694 2.0880534967115802 3 2 -2
2044 274 8 0.05 6.8038915159413325 19.215412305869073 6.005710848375347 1 3 -1