LAMMPS data file via write_data, version 29 Aug 2024, timestep = 16210000, units = real

5982 atoms
10 atom types
5253 bonds
8 bond types
8319 angles
10 angle types
8083 dihedrals
7 dihedral types

-1.0142814355089307 39.95540143551089 xlo xhi
-0.6602419882359101 39.39735198822042 ylo yhi
-0.5511390465824881 38.989359046555975 zlo zhi

Masses

1 1.008
2 1.008
3 12.011
4 15.999
5 1.008
6 1.008
7 1.008
8 12.011
9 12.011
10 15.999

Pair Coeffs # lj/charmmfsw/coul/long

1 0.024 2.38761 0.024 2.38761
2 0.046 0.400014 0.046 0.400014
3 0.078 3.65268 0.01 3.38542
4 0.1921 3.14487 0.1921 3.14487
5 0.046 0.400014 0.046 0.400014
6 0.035 2.38761 0.035 2.38761
7 0.024 2.38761 0.024 2.38761
8 0.056 3.58141 0.01 3.38542
9 0.078 3.6527 0.01 3.38542
10 0.1921 3.1449 0.1921 3.1449

Bond Coeffs # harmonic

1 322 1.111
2 428 1.42
3 545 0.96
4 222.5 1.528
5 309 1.111
6 322 1.111
7 428 1.42
8 545 0.96

Angle Coeffs # charmm

1 57.5 106 0 0
2 35.5 108.4 5.4 1.802
3 45.9 108.89 0 0
4 50 106 0 0
5 34.6 110.1 22.53 2.179
6 35.5 109 5.4 1.802
7 34.6 110.1 22.53 2.179
8 35.5 108.4 5.4 1.802
9 75.7 110.1 0 0
10 45.9 108.89 0 0

Dihedral Coeffs # charmmfsw

1 0.18 3 0 1
2 0.24 3 0 1
3 0.14 2 0 0
4 1.13 1 0 0
5 0.16 3 0 1
6 0.18 3 0 1
7 0.16 3 0 1

Atoms # full

3121 412 8 0.05 0.11316553861388634 1.8423703812814827 5.455168472388372 2 -2 1
1513 204 3 -0.04 2.958789474312519 4.590342019423644 4.424976466554048 3 -1 -2
1517 204 1 0.09 2.6375160552073904 5.546911256650272 4.895066683401092 3 -1 -2
1514 204 4 -0.65 1.857232433950577 4.145161629021277 3.6553555769629558 3 -1 -2
844 115 8 0.05 7.585387381344276 3.582909695652715 2.606107287901464 4 0 1
2256 303 1 0.09 7.786066708192855 0.6652788505273977 0.5254523288730999 -1 2 0
5817 711 9 -0.27 6.781258178312737 9.053763648343624 2.2279050706892165 -1 0 1
3123 412 5 0.43 0.9728664119907857 2.714982159002186 4.010746152545146 2 -2 1
3122 412 10 -0.66 0.8417805564448899 1.7876276649658318 4.267324202982014 2 -2 1
1820 245 10 -0.66 1.3488423072689537 5.976801796596901 1.5353325937122797 2 -2 -1
1516 204 1 0.09 3.7822640788099857 4.791190144894495 3.7435155277118835 3 -1 -2
5818 711 7 0.09 5.980442153739214 8.420796472643083 2.570119070250076 -1 0 1
845 115 10 -0.66 8.033828973945067 2.548059138369091 3.4838479690908857 4 0 1
852 115 7 0.09 6.320805626609748 4.990593475655773 3.875638135230064 4 0 1
849 115 9 -0.27 7.239381121678974 4.913366791384028 3.2555815570068223 4 0 1
1827 245 7 0.09 2.8448807294575853 8.969871692729921 1.4885611156407395 2 -2 -1
1518 204 2 0.42 1.7525567430646474 4.8546998744125185 2.9235699779277997 3 -1 -2
4849 604 8 0.05 1.5301106696841331 -0.37667375339255543 12.268488224990637 0 1 0
851 115 7 0.09 8.013711509998355 5.208485946874957 4.036850045766245 4 0 1
3126 412 9 -0.27 0.5134850204258183 0.6174588834912547 6.240754393701267 2 -2 1
850 115 7 0.09 7.178545483310415 5.67879409625043 2.528792873309316 4 0 1
4850 604 10 -0.66 0.15718293587864984 -0.19585471388302722 12.040432620154126 0 1 0
2426 326 10 -0.66 0.9921359433701 1.338269532971679 0.7080839581810143 -1 0 -2
2201 295 1 0.09 4.518756924733861 2.0639417831338935 3.9562940566343316 -1 5 0
2425 326 8 0.05 2.2167032565318103 0.8250302554723619 1.1109404075739475 -1 0 -2
2202 295 2 0.42 2.7660147529579913 0.8068624559949973 4.264273213498177 -1 5 0
1826 245 7 0.09 2.0871900408363255 8.043506953961332 2.8537278770222305 2 -2 -1
1819 245 8 0.05 1.8484939237161897 7.147018135160161 0.8831586138495335 2 -2 -1
2197 295 3 -0.04 4.713218290995255 1.2054041770696509 4.619253013694582 -1 5 0
2200 295 1 0.09 5.637694866515471 0.5968559988287014 4.434437483005262 -1 5 0
1821 245 5 0.43 0.46156351797600714 6.101043975259164 1.823543487094776 2 -2 -1
5813 711 10 -0.66 8.044940614887839 8.215094028466236 3.906292522948956 -1 0 1
2199 295 1 0.09 4.79683498496568 1.6333128176395317 5.657191573868895 -1 5 0
1825 245 7 0.09 3.5416020439852263 7.406674314561396 1.9910765683780238 2 -2 -1
847 115 6 0.09 6.6542883654325955 3.183078500018245 2.168975514879675 4 0 1
2198 295 4 -0.65 3.5679800990694526 0.32973826492060254 4.626697168220712 -1 5 0
1824 245 9 -0.27 2.5691519015575843 7.93477524397856 1.880294169260214 2 -2 -1
2433 326 7 0.09 4.2962748194880644 1.580870008680936 1.1415548171443746 -1 0 -2
5819 711 7 0.09 7.271112175984616 8.417883662893598 1.4454749389102675 -1 0 1
3867 494 7 0.09 9.118076826146382 7.0461088649897095 6.1536087595343645 -1 3 2
1177 158 7 0.09 -0.7919712528855825 7.50419699545996 3.897294033647868 -2 0 1
975 130 2 0.42 6.5126437272578395 7.4920425573934555 5.253751440252225 1 2 -1
5527 679 6 0.09 6.339961290766332 0.38321528255125403 2.0009388166085937 1 1 0
1823 245 6 0.09 2.280674129801499 6.9049802229259525 -0.05532543121539463 2 -2 -1
1822 245 6 0.09 0.8982180190519824 7.778808432988907 0.6270914522410478 2 -2 -1
3712 477 7 0.09 7.639370862718556 0.653289805991726 5.599130545880512 1 0 2
585 80 5 0.43 -0.655702679487889 1.8987115505035486 2.806975850695041 0 3 2
2219 298 10 -0.66 6.09780843292056 4.016978843766772 -0.13758498994820828 1 3 5
2254 303 3 -0.04 8.911786774822806 0.5654364967204173 0.4819475750335016 -1 2 0
1515 204 1 0.09 3.1201998352267033 3.9055474418832112 5.222309001732108 3 -1 -2
3127 412 7 0.09 1.6189564823074338 0.6204614629683449 6.398290441813753 2 -2 1
3711 477 9 -0.27 8.380372897564293 0.017416866401660847 6.0456940862987 1 0 2
5814 711 5 0.43 8.667788987319648 7.893762206712051 3.2479554861836286 -1 0 1
2432 326 7 0.09 3.3111520288004535 2.038771947435009 -0.3417541908667807 -1 0 -2
4797 598 5 0.43 3.408801361380922 3.741367497281896 11.38414110642838 2 2 2
4851 604 5 0.43 -0.07011220867688783 0.5923503473540837 11.566777208318943 0 1 0
3124 412 6 0.09 -0.9502736654839214 1.8523721152185124 5.199216554668645 2 -2 1
971 130 4 -0.65 5.946697283117685 6.875342742748758 5.693654462523375 1 2 -1
974 130 1 0.09 4.942163866597707 8.54570402702762 6.480873748466104 1 2 -1
3128 412 7 0.09 0.17876004319633876 -0.2646072819895428 5.610032048770858 2 -2 1
2428 326 6 0.09 2.453744150892479 -0.12810754511482247 0.5906716926348785 -1 0 -2
2222 298 6 0.09 4.369400485174515 4.730889488628086 0.6475620603027896 1 3 5
1163 156 1 0.09 7.608217967994467 2.7812208614597678 7.390492743826243 -1 -2 -1
3672 473 5 0.43 3.9280040479415863 8.218289690353222 12.521049632144843 0 1 0
2430 326 9 -0.27 3.2811017549678816 1.8586666608679372 0.816916844921485 -1 0 -2
3918 500 9 -0.27 0.1662948283798027 7.217281061722488 8.984073119589102 2 1 4
3919 500 7 0.09 0.8596791721580397 7.827507860068309 8.329371125765247 2 1 4
5209 644 8 0.05 5.857048630114895 -0.05344245467973818 9.94216506728062 0 2 1
4853 604 6 0.09 1.9542927035767672 0.02058030732106586 11.240451723306425 0 1 0
3674 473 6 0.09 5.244045094178834 8.839558406340892 10.419482590419728 0 1 0
1161 156 1 0.09 6.68820548175477 3.2915107509477717 5.903106564940204 -1 -2 -1
3673 473 6 0.09 3.811664937343478 7.991045323594506 9.599900967408708 0 1 0
3129 412 7 0.09 -0.05030547337133928 0.6037675894259698 7.173718363522291 2 -2 1
3920 500 7 0.09 -0.696005203706714 6.961924876354897 8.39598543717844 2 1 4
2258 303 1 0.09 9.005899246616606 -0.5357346684618676 0.3177465067902703 -1 2 0
2218 298 8 0.05 5.159837677631905 5.065297580161761 -0.03455162504886011 1 3 5
4802 598 7 0.09 3.801548940920749 1.901890793581721 8.454281873339008 2 2 2
5213 644 6 0.09 5.3625825204539845 -0.32951186713353053 8.96783780669222 0 2 1
380 51 6 0.09 -0.013497265292973015 4.022314437877665 11.001976552131717 0 -2 -1
3671 473 10 -0.66 3.912674854650099 7.781452008458626 11.651577543434838 0 1 0
1159 156 3 -0.04 7.415207916299879 3.6845234265980604 6.636857900519783 -1 -2 -1
379 51 6 0.09 -0.604745799683202 3.555693809531438 9.318579157889044 0 -2 -1
2079 279 1 0.09 5.946156883196265 5.499783023887832 10.374076785606958 1 -1 -1
1162 156 1 0.09 8.392724269405925 4.0361915829867 6.327663634741432 -1 -2 -1
5216 644 7 0.09 7.867381921390386 0.2974252226863111 10.708685918357764 0 2 1
1160 156 4 -0.65 6.722286172902622 4.727305709780812 7.230012486450558 -1 -2 -1
973 130 1 0.09 4.1519344038993555 7.055622778857109 6.893672748739794 1 2 -1
376 51 8 0.05 -0.42305933494827286 3.196101705218866 10.35227424205669 0 -2 -1
1164 156 2 0.42 6.452176210360571 5.331408825811004 6.493949889907327 -1 -2 -1
972 130 1 0.09 4.035314528258513 7.539977405247351 5.268525780362488 1 2 -1
4801 598 7 0.09 2.1758430289605952 2.8464652405397657 8.100080067377778 2 2 2
5212 644 6 0.09 5.287758710472115 0.9245662232901748 10.207287233062422 0 2 1
3913 500 8 0.05 -0.21438664551347442 8.06469748576006 10.20768135897276 2 1 4
4795 598 8 0.05 3.695347218826665 3.7497392529411915 9.531912799396991 2 2 2
4803 598 7 0.09 3.7060761905540947 3.2881551412170085 7.3596932377323805 2 2 2
2082 279 2 0.42 7.472065885520754 5.586342825225424 8.907944804250063 1 -1 -1
2080 279 1 0.09 7.31787093350507 5.194076353509253 11.482548253948307 1 -1 -1
377 51 10 -0.66 0.45076357859149563 2.0869749874708328 10.286952019877935 0 -2 -1
4798 598 6 0.09 4.765088230705064 3.937837680401425 9.668920680019289 2 2 2
3921 500 7 0.09 0.6261531504550544 6.256170551859444 9.260514828362272 2 1 4
4796 598 10 -0.66 3.0283198255915487 3.2208333720176445 10.656706930016682 2 2 2
2077 279 3 -0.04 6.898441867427339 5.957075853773531 10.762836364535305 1 -1 -1
378 51 5 0.43 1.3550340955715612 2.3791161311315365 10.571394976533108 0 -2 -1
5217 644 7 0.09 7.464999921613417 1.1041540459973251 9.112918671931999 0 2 1
1788 240 2 0.42 4.337513734656823 6.064458737657954 12.493393308601654 -1 3 0
2429 326 6 0.09 2.286642437970822 0.623024279103559 2.1877982151708175 -1 0 -2
5214 644 9 -0.27 7.324384194319279 0.14362962587324823 9.768175167251334 0 2 1
4799 598 6 0.09 3.2492655336838325 4.800540507673131 9.310554718526648 2 2 2
2078 279 4 -0.65 7.858670231011919 6.0560705423066805 9.716547195341906 1 -1 -1
3917 500 6 0.09 0.4921159249286837 8.085931324951426 10.96475961327519 2 1 4
3125 412 6 0.09 0.38113043945245195 2.725601698401557 6.0785332401313035 2 -2 1
4800 598 9 -0.27 3.2937275571085536 2.8839174753549814 8.31614429043804 2 2 2
970 130 3 -0.04 4.741722543525444 7.554494154717284 6.101437915781492 1 2 -1
1743 234 2 0.42 7.735476608870188 8.196532560408418 7.973428673424772 -2 0 -2
2431 326 7 0.09 3.0629507237616442 2.8873455137414363 1.2415521474804996 -1 0 -2
3670 473 8 0.05 4.172160091937055 8.570736695693144 10.520577941342433 0 1 0
2081 279 1 0.09 6.633997024394575 6.874520152334647 11.282398262376569 1 -1 -1
2221 298 6 0.09 5.539350292297282 6.034416821043536 0.373978536766596 1 3 5
846 115 5 0.43 8.360758215355036 1.823073942338874 2.9618098641844197 4 0 1
2427 326 5 0.43 0.893104633332306 2.2780881255803997 1.026354438050727 -1 0 -2
1741 234 1 0.09 8.51649214681719 8.753045634063145 9.874682006215728 -2 0 -2
1739 234 4 -0.65 7.752592759955013 9.154291421160519 8.007224366512233 -2 0 -2
1178 158 7 0.09 -0.46035310338404833 6.055606077941869 4.727157667855689 -2 0 1
848 115 6 0.09 8.334870601000679 3.8408935271174007 1.8220011208424376 4 0 1
4304 543 6 0.09 -0.25877807132638586 3.9464973575942457 -0.46273240197355126 1 0 1
3713 477 7 0.09 8.608615857669292 0.28047475894867935 7.137554946156263 1 0 2
5215 644 7 0.09 7.82988167244101 -0.6515962962322952 9.21172094678241 0 2 1
4791 597 9 -0.27 3.1157442112359384 4.614286332708207 19.29291866313689 3 0 -1
494 67 4 -0.65 6.131020628163834 0.45132483039301086 13.63509088974611 1 0 0
1787 240 1 0.09 4.334007703496187 4.48512833733915 14.88441557702188 -1 3 0
306 42 9 -0.27 1.2754301301023068 9.1159106667082 13.73545072847263 0 -1 -1
4792 597 7 0.09 3.1125918295836588 4.601059737589833 18.216609840874 3 0 -1
4793 597 7 0.09 2.1005943389636808 4.476118551154604 19.612796109496188 3 0 -1
3832 491 8 0.05 -0.5927436332226027 5.4083194578006655 17.787882625325143 2 1 0
3158 416 10 -0.66 5.076413859783293 3.788464145932668 22.441498459178295 2 -1 0
2105 282 1 0.09 8.211709271830726 0.8353486251972497 22.800961859530737 2 3 1
5115 633 9 -0.27 5.101326815144121 6.656719783599807 25.127619556970288 1 3 -1
302 42 10 -0.66 3.5897422674034303 8.910513075342406 14.42335773982616 0 -1 -1
579 79 9 -0.27 1.631041684885418 2.94740779095719 15.30933834547925 0 3 3
1785 240 1 0.09 5.03563199343292 6.147127424089046 14.58546310107295 -1 3 0
2721 364 2 0.42 6.91965716119986 7.851650127837834 16.06514671694004 -1 1 -2
1783 240 3 -0.04 4.290327919343749 5.361041307532147 14.238576331217345 -1 3 0
4794 597 7 0.09 3.6543728021904833 3.7046804737530596 19.700978198283046 3 0 -1
575 79 10 -0.66 0.15316476076367325 4.048765044277801 13.872171203272831 0 3 3
577 79 6 0.09 -0.22777384623395602 2.144508651272591 14.417694390082058 0 3 3
582 79 7 0.09 2.2047812927312185 2.552813228554124 14.429812405964862 0 3 3
496 67 1 0.09 5.650221086139941 2.4530327407791823 13.546600552461465 1 0 0
3159 416 5 0.43 4.497639673033312 4.4913734160253025 22.058862324118074 2 -1 0
4650 581 7 0.09 2.6543420043321873 -0.20578452962089477 17.39868287361015 0 2 1
3645 470 5 0.43 6.432370301013112 6.985251832079132 18.622239269314647 0 -1 -2
5332 657 7 0.09 0.4625157969786986 5.479634423286248 22.399205399369983 4 -1 1
498 67 2 0.42 6.266955054651912 -0.258031898798494 14.313515636003576 1 0 0
305 42 6 0.09 2.0330005918875114 7.475066359729144 14.949140876253612 0 -1 -1
5118 633 7 0.09 5.007602425483178 6.201789579745815 24.103484049971026 1 3 -1
574 79 8 0.05 0.17286080322385922 3.061827132256872 14.884428900890413 0 3 3
495 67 1 0.09 7.220326905528362 2.13790730783965 14.41740588893484 1 0 0
4786 597 8 0.05 3.486104950004478 5.933059563509343 19.922434705751485 3 0 -1
4790 597 6 0.09 2.801619285014246 6.681721191724289 19.460150147621256 3 0 -1
2101 282 3 -0.04 7.65150645724826 0.46366544328576786 23.645742885946156 2 3 1
1786 240 1 0.09 3.3721154680001115 5.8589489851017715 14.507255792737809 -1 3 0
2716 364 3 -0.04 8.477803981409588 7.225933396986093 15.179186639893725 -1 1 -2
3646 470 6 0.09 4.69206808416399 8.298383379554673 18.969365198842564 0 -1 -2
2717 364 4 -0.65 7.240399134584861 7.925102208537869 15.169822647360656 -1 1 -2
3644 470 10 -0.66 6.1947742092534055 7.284750880449806 17.706259542993497 0 -1 -2
1737 233 7 0.09 0.7500844326940819 0.44144437490854527 19.07608683199567 0 1 2
2677 359 6 0.09 0.21425563339486908 -0.14975552604117603 25.42331291738975 3 -1 -2
147 20 5 0.43 7.5515422107436265 8.89331718435335 13.459369762811976 3 3 -1
1734 233 9 -0.27 0.5618717958897275 0.2706125504224306 20.108026734743735 0 1 2
576 79 5 0.43 0.6235906967563887 3.494661555730823 13.18848990725168 0 3 3
301 42 8 0.05 2.216528390196014 8.606395723939219 14.765451972543586 0 -1 -1
3643 470 8 0.05 5.346062090866749 8.378307836414155 18.00850854797636 0 -1 -2
497 67 1 0.09 5.580461221094988 1.7379830356498225 15.325806651721013 1 0 0
4648 581 7 0.09 4.262373239057958 0.5506256056857026 17.044667805606004 0 2 1
581 79 7 0.09 2.0038337883195068 3.897481801240981 15.62629742235762 0 3 3
578 79 6 0.09 -0.5179932210318505 3.327875533117494 15.724058514391508 0 3 3
493 67 3 -0.04 6.163865958618434 1.7315156618773826 14.30159146401332 1 0 0
3837 491 9 -0.27 0.523240363301676 6.147048352588892 17.16646719676528 2 1 0
4540 569 7 0.09 9.05812661469596 2.6892820209737454 16.64639277961474 2 0 -2
4645 581 6 0.09 5.074247803618664 0.4824202838476803 19.289842880815915 0 2 1
580 79 7 0.09 1.771585278069629 2.158377743271449 16.084449298479907 0 3 3
4649 581 7 0.09 3.1436693918798353 1.4103884108843565 18.066537326944243 0 2 1
2156 289 1 0.09 8.435295584259102 -0.6249571342276214 17.946468821143622 0 0 1
2886 385 1 0.09 -0.29034101479619145 9.014047098792334 22.343144216613286 1 4 1
4642 581 8 0.05 4.220110489431089 -0.16344336585642244 19.107216098019475 0 2 1
4682 585 6 0.09 0.5940578413230577 -0.4748838282859883 17.12966461027909 0 -1 -2
2982 396 9 -0.27 6.111881629847234 8.309857334923292 21.965493583448477 0 1 0
1736 233 7 0.09 0.8077253067709309 1.1701834906005206 20.7204213148285 0 1 2
304 42 6 0.09 2.0347065974002483 9.057694871954844 15.74099659754096 0 -1 -1
5706 699 5 0.43 6.074543947745304 2.7435759181024424 21.385965837712924 -1 -2 0
5331 657 9 -0.27 0.3172746443318757 4.380294924693545 22.379962184830614 4 -1 1
5333 657 7 0.09 1.062246149308936 4.0134874602575845 21.68802098399028 4 -1 1
2981 396 6 0.09 7.892231866432738 7.020367821653391 22.348228548666278 0 1 0
4789 597 6 0.09 4.525512091640041 6.162687405454489 19.692445894494767 3 0 -1
5710 699 7 0.09 7.15769803030417 4.186508324805301 18.201246712760724 -1 -2 0
5709 699 9 -0.27 6.777173623069156 3.2688315996060675 18.70698363676113 -1 -2 0
2103 282 1 0.09 6.482666035039754 0.39358173574033795 23.37631865937534 2 3 1
2888 385 1 0.09 -0.2144414618673588 7.5639528714823125 21.244503599432367 1 4 1
2983 396 7 0.09 6.342425411387763 8.889791335711983 22.95180670207872 0 1 0
2719 364 1 0.09 8.345608566737857 6.203745557939185 15.397933605166362 -1 1 -2
4787 597 10 -0.66 3.4366193489223678 5.842090318582274 21.341647891064998 3 0 -1
2985 396 7 0.09 5.823450495591758 8.918239591030563 21.025489498909796 0 1 0
5712 699 7 0.09 7.116586934767955 2.3296099463136586 18.24353658309416 -1 -2 0
3163 416 7 0.09 2.8941666784267035 2.882324898850679 21.752058229918266 2 -1 0
3160 416 6 0.09 3.7939442326149253 3.64333297728772 24.089269658792638 2 -1 0
5334 657 7 0.09 0.45317342588682674 4.050990225461836 23.385131026292136 4 -1 1
5711 699 7 0.09 5.700713621508807 3.27121148920089 18.79255341275268 -1 -2 0
2977 396 8 0.05 7.468007721085554 7.6419656794493775 21.542554206945628 0 1 0
2781 372 1 0.09 1.651256112516553 7.335363916999886 24.26277628715793 -1 2 -1
5707 699 6 0.09 8.424294640041447 3.189400166295955 20.04941979801957 -1 -2 0
3157 416 8 0.05 4.368172522718726 3.0099793320674135 23.36181350513062 2 -1 0
5704 699 8 0.05 7.3141884184892145 3.3529376695397017 20.15865857055465 -1 -2 0
2537 341 10 -0.66 3.088180921439588 8.702977485254406 22.032829194072562 1 1 -2
5705 699 10 -0.66 6.7463331403599485 2.2926680347588406 20.932111870055 -1 -2 0
3836 491 6 0.09 -0.1670457877751932 4.336323320092898 17.952217962620892 2 1 0
2782 372 1 0.09 2.6131769853279203 8.209155909430434 25.54494184323491 -1 2 -1
3162 416 9 -0.27 3.4644931211251215 2.221532994527553 22.436075595171108 2 -1 0
3647 470 6 0.09 4.592089264132796 8.387629339464592 17.19675029701644 0 -1 -2
2157 289 2 0.42 7.7922004252267225 0.6141692282666384 20.116529309126136 0 0 1
5114 633 6 0.09 7.187655006596117 6.816007281793144 25.01817474664261 1 3 -1
3840 491 7 0.09 0.02223925604100363 7.116561154182996 16.728839682084256 2 1 0
1784 240 4 -0.65 4.2311692855019825 5.15330703105171 12.827109542918194 -1 3 0
2104 282 1 0.09 7.685887995030962 1.1798412984268796 24.50771940952544 2 3 1
4646 581 6 0.09 3.615292615518883 -0.21370654621455604 19.977551651591877 0 2 1
5110 633 8 0.05 6.401929723249119 6.388170674397501 25.688742571147216 1 3 -1
3164 416 7 0.09 2.723678619273463 1.4807411278382445 22.976399628762056 2 -1 0
5116 633 7 0.09 4.925715863202021 7.694249426602768 24.916572756374453 1 3 -1
3838 491 7 0.09 0.9744681028289388 5.630991024081228 16.290408062133576 2 1 0
4852 604 6 0.09 1.8700913843738949 0.3153617393274396 13.08997900772666 0 1 0
3161 416 6 0.09 5.01102942269993 2.446286087363534 23.955950361245755 2 -1 0
2979 396 5 0.43 8.160098869827138 6.40979698900885 20.171710878979624 0 1 0
2779 372 3 -0.04 1.6117477546777805 8.139137971172477 25.07816703276466 -1 2 -1
3839 491 7 0.09 1.3356375727614989 6.574758173567374 17.806238630015937 2 1 0
4788 597 5 0.43 3.2046736208416853 6.7011282236220735 21.676888531277935 3 0 -1
2984 396 7 0.09 5.371450826356057 7.470138513817314 21.993027853487987 0 1 0
2720 364 1 0.09 8.96311963049945 7.251592038932559 14.24273461415437 -1 1 -2
2978 396 10 -0.66 7.3079384270657 6.8597641326406364 20.371533121133826 0 1 0
3165 416 7 0.09 4.112005523299445 1.6491557202162013 21.82758597385413 2 -1 0
2980 396 6 0.09 8.241810506205224 8.49659155891268 21.370364164146228 0 1 0
5708 699 6 0.09 7.070038666839547 4.315917242252419 20.71582861388835 -1 -2 0
2538 341 5 0.43 2.6298293281064056 8.829421218071198 22.84946943689066 1 1 -2
4647 581 9 -0.27 3.482088860506006 0.37993746180086174 17.83501359218102 0 2 1
309 42 7 0.09 1.3807408867794568 8.607282100523195 12.791605060863402 0 -1 -1
2153 289 4 -0.65 8.547627336556506 -0.023953039625701167 19.904341869940957 0 0 1
4730 590 7 0.09 0.8607234751823858 8.90885351644151 18.415879893362177 3 0 1
1729 233 8 0.05 -0.8933784677181054 -0.042947491544280236 20.230770446901605 0 1 2
2884 385 3 -0.04 -0.8540359966341234 8.140361172429747 21.978006749575627 1 4 1
308 42 7 0.09 0.24157232099919068 9.035933899842751 14.056844549399946 0 -1 -1
4678 585 8 0.05 -0.4803832926341123 -0.6164673650109187 16.805790622601794 0 -1 -2
1735 233 7 0.09 1.193470752523727 -0.5165883141318858 20.468764750155657 0 1 2
5117 633 7 0.09 4.235874658880005 6.320640696985704 25.658323883861083 1 3 -1
2783 372 1 0.09 0.741379375689655 7.977651283389518 25.765599463158946 -1 2 -1
2887 385 1 0.09 -0.8911271471404769 7.525488106667931 22.889044205988743 1 4 1
5423 667 7 0.09 4.05720852119078 7.572372645364938 30.97662699615167 2 -1 2
5421 667 9 -0.27 4.742506542548113 6.777564551219009 30.58082908697404 2 -1 2
4302 543 5 0.43 -0.9034660079962338 5.987170029775552 38.04083169138484 1 0 0
5422 667 7 0.09 4.9406541505760755 6.188806363191547 31.457208588896872 2 -1 2
5424 667 7 0.09 5.639430219947691 7.197258463222312 30.057163367885764 2 -1 2
82 11 1 0.09 1.9085841565798871 -0.10312294101868202 37.96451159232345 1 -1 -1
4970 617 6 0.09 -0.4690351086724077 8.454968506713865 29.631449092743257 0 1 -1
5416 667 8 0.05 4.079577452878601 5.755624604539954 29.681947551346013 2 -1 2
4373 551 10 -0.66 5.315745781664229 -0.5523695623501582 29.46029459502303 1 2 2
4307 543 7 0.09 1.9473042638855138 3.999929852644236 38.08124092203823 1 0 0
5418 667 5 0.43 2.334110535419858 6.401556618507616 30.10272842676764 2 -1 2
5420 667 6 0.09 4.675133955912234 4.788906858234414 29.645778977158425 2 -1 2
1888 254 3 -0.04 4.542368190765578 2.4681587322921184 27.776260600715442 2 -3 0
4669 584 8 0.05 8.589496944606163 0.7632215795335864 31.91267460214848 3 1 0
5419 667 6 0.09 4.213966272131809 6.1402005978088345 28.69131526755331 2 -1 2
5417 667 10 -0.66 2.7592653270695164 5.5361800791408005 30.010725468749154 2 -1 2
1889 254 4 -0.65 4.95347839832909 1.1770014998714207 27.20404858545006 2 -3 0
2054 276 10 -0.66 4.871396802903631 9.30654459035089 27.22740233039876 1 0 0
1891 254 1 0.09 4.832217414248694 2.5043369969651224 28.861096916342614 2 -3 0
2243 301 4 -0.65 8.342876508238627 1.156610930998326 28.527585655967115 3 0 -3
1890 254 1 0.09 3.4349282720046217 2.654909155324601 27.682714379740275 2 -3 0
2247 301 2 0.42 7.411452263719605 1.3384507956557536 28.43614326745495 3 0 -3
1039 139 8 0.05 0.20314163220915948 3.3783101606439985 27.575660450401 -1 1 -2
1893 254 2 0.42 4.714151884438545 0.504735031754725 27.867522721075805 2 -3 0
4968 617 5 0.43 1.8704423329672792 8.876133878477829 29.695453640872365 0 1 -1
4967 617 10 -0.66 1.533311644554919 8.00966280048524 29.983884118293638 0 1 -1
2469 331 1 0.09 2.2640205380909535 0.9268661640600695 29.43797674239361 -4 0 -2
1043 139 6 0.09 0.8141876654671956 4.173998280164999 27.07808156240558 -1 1 -2
1044 139 9 -0.27 0.7611757777226089 3.151068154280175 28.927586610363356 -1 1 -2
5339 658 6 0.09 5.665666246849302 5.271933763888646 33.56663318897721 3 2 -2
5239 647 6 0.09 3.51317851421578 -0.2238209835208146 33.621400448144854 1 1 1
5242 647 7 0.09 4.468676975999815 1.9310800296850656 31.505995592579968 1 1 1
1047 139 7 0.09 0.6705794962385649 4.011707802028582 29.542202311641304 -1 1 -2
4974 617 7 0.09 0.7685768911427713 8.248545734230413 32.34743054265759 0 1 -1
5111 633 10 -0.66 6.534992076841017 7.048149795918415 26.97815990809559 1 3 -1
2242 301 3 -0.04 8.78647202880648 0.5211952552042869 27.373183383684783 3 0 -3
1040 139 10 -0.66 0.34291989323227723 2.15728892427273 26.928845476749512 -1 1 -2
4672 584 6 0.09 8.507025877868603 -0.11983291354361214 32.55151417301518 3 1 0
1678 226 1 0.09 7.0567685625381475 -0.09238433988856642 35.16844180282354 1 2 -2
5236 647 8 0.05 3.8820487428247894 0.08860573564571939 32.584428122504335 1 1 1
1045 139 7 0.09 1.843099941961432 2.911703221179403 28.880764328777776 -1 1 -2
5243 647 7 0.09 5.123369788487766 1.7290763150429624 33.215219254831325 1 1 1
2055 276 5 0.43 5.52392427333962 8.557492583188397 27.01726595842089 1 0 0
5112 633 5 0.43 7.515607387789391 7.212148291247486 27.08032423007868 1 3 -1
4674 584 9 -0.27 8.879637256247454 2.0101322440216314 32.718429524202136 3 1 0
2472 331 2 0.42 0.7969754079148463 0.7627044894639661 27.7975772762517 -4 0 -2
4673 584 6 0.09 7.602752056797671 0.85074474299937 31.327427499815542 3 1 0
4969 617 6 0.09 -0.17840055642465957 6.945180060352534 30.470807178759518 0 1 -1
4305 543 9 -0.27 1.0978825344309389 3.535409257518687 37.51462830295853 1 0 0
4301 543 10 -0.66 -0.27658121980950323 5.431044764984146 37.45265788302588 1 0 0
1360 185 3 -0.04 7.092218355614239 2.3698299127085978 36.62634120071898 0 0 0
4308 543 7 0.09 1.1429401327432376 3.621834963768582 36.340248429298825 1 0 0
1362 185 1 0.09 7.686289052753159 1.6068008976522168 37.22276445836752 0 0 0
246 34 9 -0.27 0.6613281195392142 8.95161137636057 36.76310749386256 -1 1 3
2224 298 7 0.09 3.753114062540333 6.046473332867027 38.1634475946705 1 3 4
437 59 10 -0.66 9.145173621618923 8.392005932778817 26.718796918669863 -1 -1 2
777 104 7 0.09 9.147605440508777 5.176168291842547 29.427305016407725 3 -1 -1
2467 331 3 -0.04 1.9550982101114496 -0.09854774043195091 29.18080984694742 -4 0 -2
1363 185 1 0.09 6.053377553444312 2.469974336107506 36.99277669469184 0 0 0
2175 292 5 0.43 6.630267909915376 8.048867424983364 37.881983714758064 0 2 0
1722 232 5 0.43 1.1562094775649037 5.650150233546387 36.24393242982481 1 1 -1
209 29 4 -0.65 5.288394393697121 9.058106052576916 38.6936055389172 5 -1 -1
2468 331 4 -0.65 1.115237387276908 -0.1373835041816528 28.055181048335655 -4 0 -2
4675 584 7 0.09 9.005528437784495 2.8192372805813597 32.04828666791869 3 1 0
249 34 7 0.09 0.3207153794248516 8.321759912867345 37.60666628606121 -1 1 3
4991 619 7 0.09 -0.8216787669685983 0.4492410793905912 30.77487597612169 2 0 0
2244 301 1 0.09 8.057341082423175 0.6510931097856989 26.573831966150493 3 0 -3
5343 658 7 0.09 6.169355550755208 7.7757284802674445 33.34008267829326 3 2 -2
5244 647 7 0.09 3.3634650548751646 2.0992673240669335 32.93615521335448 1 1 1
2470 331 1 0.09 1.4619005029892747 -0.48961330983925366 30.143095469807584 -4 0 -2
1365 185 2 0.42 7.326348683681653 4.18857729762328 35.9014856061213 0 0 0
1042 139 6 0.09 -0.8725649066036185 3.75459924430056 27.545977526091605 -1 1 -2
2176 292 6 0.09 7.9157835801002445 5.7793736393001245 37.88732550597963 0 2 0
1728 232 7 0.09 1.5874732185023506 5.49620805507154 32.28467767193452 1 1 -1
4971 617 9 -0.27 0.051398489999296526 8.605812016939547 31.73025805698074 0 1 -1
4300 543 8 0.05 -0.21564508393033233 4.124178464700592 37.98770684790905 1 0 0
4677 584 7 0.09 7.962661522485526 2.268385279371626 33.357630595546084 3 1 0
79 11 3 -0.04 1.4794721933272643 -0.46167443949929265 37.05572586386356 1 -1 -1
5342 658 7 0.09 4.485544517659704 7.482422480407893 33.82245362269944 3 2 -2
1723 232 6 0.09 1.5747205658479304 7.1646070343911665 33.98385117737001 1 1 -1
2226 298 7 0.09 5.3263191029946855 5.727405349867129 37.41724979315873 1 3 4
5341 658 7 0.09 5.605894830224808 8.06342976991093 35.07035461978103 3 2 -2
5340 658 9 -0.27 5.521864233513652 7.384728153203239 34.17687867256737 3 2 -2
1721 232 10 -0.66 1.8716944631215524 5.799384048022572 35.58254417647166 1 1 -1
1720 232 8 0.05 1.3111052625379744 6.175283090551184 34.2634453173622 1 1 -1
241 34 8 0.05 2.160541507256727 9.22674523290315 36.67141246284086 -1 1 3
2225 298 7 0.09 4.103497749138653 4.3507479283734725 37.68421633614375 1 3 4
243 34 5 0.43 2.570016384482102 7.296950790365048 36.354813588450455 -1 1 3
242 34 10 -0.66 2.7866247614268214 7.978528630935177 37.01673486649646 -1 1 3
5336 658 10 -0.66 7.051276133646782 5.812073545992417 34.979430334075786 3 2 -2
2220 298 5 0.43 6.503683774173038 4.1728802443359445 38.45100542350926 1 3 4
1361 185 4 -0.65 7.6017831572115675 3.7056567726817624 36.71405652104919 0 0 0
5335 658 8 0.05 5.734113303817419 5.913605764877468 34.48856857826256 3 2 -2
247 34 7 0.09 0.33418072909520524 8.349139935759077 35.8821335283876 -1 1 3
1364 185 1 0.09 7.0849581574539435 2.091855609606575 35.5422582030841 0 0 0
1727 232 7 0.09 2.9356280637980783 4.892749982591273 33.533501575322134 1 1 -1
1725 232 9 -0.27 1.8295701412826038 5.170150690948229 33.324165884744914 1 1 -1
5241 647 9 -0.27 4.22015950358733 1.5380888821698986 32.53559366486921 1 1 1
2173 292 8 0.05 8.226036219069645 6.900359807780352 37.8986740134023 0 2 0
4966 617 8 0.05 0.1837375843584379 7.954590358112162 30.366570979846646 0 1 -1
4972 617 7 0.09 -0.8714503093782386 8.450261983636123 32.24735506510355 0 1 -1
1726 232 7 0.09 1.2600301057740877 4.314861190766189 33.3423742329323 1 1 -1
213 29 2 0.42 4.499054725163995 8.582999807279558 38.346260957859 5 -1 -1
5237 647 10 -0.66 5.110387338453412 -0.5006178943219723 32.342502756281434 1 1 1
5338 658 6 0.09 4.979635496529653 5.589490133861176 35.191406610685775 3 2 -2
1724 232 6 0.09 0.15031461253227918 6.116058085662862 34.31808078274331 1 1 -1
5337 658 5 0.43 7.064539728809343 6.601809544582627 35.60400188145037 3 2 -2
2174 292 10 -0.66 7.1626407309434565 7.5962879495774 37.21016145776272 0 2 0
2223 298 9 -0.27 4.565294932647484 5.284851920123216 38.10978215179715 1 3 4
1046 139 7 0.09 0.3704063017808137 2.282332824486364 29.3262909646111 -1 1 -2
83 11 1 0.09 1.3972476018062228 0.4035557523199731 36.39175751609132 1 -1 -1
4306 543 7 0.09 1.1783465819200853 2.428834216913272 37.854665564775786 1 0 0
5240 647 6 0.09 3.15936297926626 -0.3170552602524714 31.83050706600228 1 1 1
1892 254 1 0.09 5.090523271849573 3.2732169491465104 27.25417610668186 2 -3 0