LAMMPS data file via write_data, version 29 Aug 2024, timestep = 7209173, units = real

6258 atoms
10 atom types
5529 bonds
8 bond types
8871 angles
10 angle types
9095 dihedrals
7 dihedral types

-1.2559500472090903 40.197070047204875 xlo xhi
-0.896530444632397 39.63364044461596 ylo yhi
-0.7843773001033867 39.22259730010495 zlo zhi

Masses

1 1.008
2 1.008
3 12.011
4 15.999
5 1.008
6 1.008
7 1.008
8 12.011
9 12.011
10 15.999

Pair Coeffs # lj/charmmfsw/coul/long

1 0.024 2.38761 0.024 2.38761
2 0.046 0.400014 0.046 0.400014
3 0.078 3.65268 0.01 3.38542
4 0.1921 3.14487 0.1921 3.14487
5 0.046 0.400014 0.046 0.400014
6 0.035 2.38761 0.035 2.38761
7 0.024 2.38761 0.024 2.38761
8 0.056 3.58141 0.01 3.38542
9 0.078 3.6527 0.01 3.38542
10 0.1921 3.1449 0.1921 3.1449

Bond Coeffs # harmonic

1 322 1.111
2 428 1.42
3 545 0.96
4 222.5 1.528
5 309 1.111
6 322 1.111
7 428 1.42
8 545 0.96

Angle Coeffs # charmm

1 57.5 106 0 0
2 35.5 108.4 5.4 1.802
3 45.9 108.89 0 0
4 50 106 0 0
5 34.6 110.1 22.53 2.179
6 35.5 109 5.4 1.802
7 34.6 110.1 22.53 2.179
8 35.5 108.4 5.4 1.802
9 75.7 110.1 0 0
10 45.9 108.89 0 0

Dihedral Coeffs # charmmfsw

1 0.18 3 0 1
2 0.24 3 0 1
3 0.14 2 0 0
4 1.13 1 0 0
5 0.16 3 0 1
6 0.18 3 0 1
7 0.16 3 0 1

Atoms # full

5781 676 7 0.09 4.7578542805131105 6.110559116410517 2.573763559334136 2 0 0
5773 676 8 0.05 6.1921676320522785 6.528890230938307 1.0224300631308607 2 0 0
5780 676 7 0.09 4.492849394728168 7.685699309175961 1.597706069524865 2 0 0
5778 676 9 -0.27 4.837705419661509 6.607414862741582 1.5637496244393065 2 0 0
5779 676 7 0.09 4.131285301523606 6.13596738250427 0.8579497219325978 2 0 0
5777 676 6 0.09 6.446235769369232 7.458617392592229 0.3809149473100186 2 0 0
4125 492 7 0.09 0.31559300997951767 3.838227676645002 1.3370465696670522 1 1 -1
4119 492 5 0.43 1.4187221587213155 5.942740139509912 3.9793095883541145 1 1 -1
5459 641 10 -0.66 1.8183957394247532 7.666377589642691 4.723283443875481 0 0 1
5774 676 10 -0.66 7.154185163447725 6.717472252100247 2.0091262007968647 2 0 0
4117 492 8 0.05 1.8308834864624814 4.63297337678137 2.6035070357452743 1 1 -1
4122 492 9 -0.27 1.2089528977216109 3.475967616994926 1.8791295997983366 1 1 -1
4120 492 6 0.09 2.7329825693276355 4.303234054710036 3.181550486307631 1 1 -1
5776 676 6 0.09 6.321439041361712 5.671183350771125 0.38070972261396396 2 0 0
4123 492 7 0.09 0.9265957151443973 2.7090565396425315 2.6489268741467944 1 1 -1
5460 641 5 0.43 1.4481970065498864 8.580802735912938 4.620962851803065 0 0 1
4118 492 10 -0.66 0.973465634637023 5.097259208478965 3.6341983581565396 1 1 -1
5170 609 8 0.05 6.300822590577293 3.757356193677447 5.504963920608679 -1 1 1
4121 492 6 0.09 2.016190199893269 5.568522177111088 1.888364654594147 1 1 -1
1482 197 7 0.09 2.3278354551262876 0.9706988471996114 2.7186733935236846 3 1 1
4124 492 7 0.09 1.908896145319873 3.029092409251616 1.1922213869707852 1 1 -1
5458 641 8 0.05 3.0432948013800916 7.973540729679543 5.355494124912571 0 0 1
5775 676 5 0.43 8.004375315780514 6.290336773024413 1.6283739800439507 2 0 0
1743 228 5 0.43 0.15979813347138205 3.675370529125537 4.949445218102633 1 0 -2
5173 609 6 0.09 6.609402511581454 4.833136392938827 5.794760562368878 -1 1 1
5462 641 6 0.09 3.6501859518568276 8.636611739890473 4.722936454729818 0 0 1
5178 609 7 0.09 5.396051474397938 4.2840293622971535 3.6624755515527463 -1 1 1
1479 197 9 -0.27 1.852981684699381 0.02985971926049502 2.484783999838146 3 1 1
1742 228 10 -0.66 -0.026546344117140075 3.26188080009522 5.794060683952196 1 0 -2
5847 684 5 0.43 6.3150975215770035 8.231391827701586 2.904399773815271 1 0 0
2557 318 7 0.09 -0.9415676116674889 6.439188246049097 5.851546885916139 2 1 0
1481 197 7 0.09 2.3700494018281906 -0.24381168667295283 1.5094118988351628 3 1 1
5851 684 7 0.09 8.592638754577338 8.674913516564294 3.1604905311651734 1 0 0
5191 611 6 0.09 6.186040539372856 -0.4148270621401066 -0.497270096347206 1 1 1
5196 611 7 0.09 4.7788745324683255 0.6950594458133947 1.3578127458380553 1 1 1
5175 609 9 -0.27 6.313759920113137 3.780827779188826 3.959631411610416 -1 1 1
5193 611 9 -0.27 5.1914808444337 -0.331435351866466 1.499273996090678 1 1 1
5846 684 10 -0.66 5.937032697327799 8.934307796773805 3.484341913753507 1 0 0
5194 611 7 0.09 5.503652329193732 -0.5684167569327543 2.5727661932052848 1 1 1
5465 641 7 0.09 4.018781249472804 6.2126040061514285 4.467215367984494 0 0 1
5177 609 7 0.09 7.109005754090967 4.330793141189997 3.430269564903802 -1 1 1
5463 641 9 -0.27 3.6975953756681585 6.6390036487996005 5.50017443285195 0 0 1
5192 611 6 0.09 7.231048563813431 0.016211501204125733 0.8049445095250267 1 1 1
1745 228 6 0.09 1.1208989307022739 1.8885041027660887 4.856008812519106 1 0 -2
1047 140 1 0.09 6.55571098770927 -0.04552976957209087 4.6387022676108245 1 0 -1
1478 197 6 0.09 2.0752098112963853 -0.6516613159025116 4.494348969344244 3 1 1
5845 684 8 0.05 6.9441449645063145 9.1267906215171 4.507011912157216 1 0 0
1045 140 3 -0.04 7.301127741230568 -0.46855388675278775 5.340584731766543 1 0 -1
850 115 1 0.09 6.686929846644753 8.893725122433064 11.595282748736608 0 1 1
1480 197 7 0.09 0.7287847892657935 0.09237938810855373 2.441150866161081 3 1 1
3700 445 7 0.09 -0.6420553029832036 -0.5317417644740341 9.170671425078442 2 3 0
1048 140 1 0.09 8.298564600227326 -0.14060385332637082 4.960102895637552 1 0 -1
851 115 1 0.09 8.38589796401149 8.743228454402075 12.01926030537711 0 1 1
236 32 7 0.09 8.426047956492276 8.445768527976606 9.043040304697533 0 0 1
819 111 1 0.09 4.459169182079132 3.545162417103345 12.296530667876624 -2 -1 0
1248 166 2 0.42 4.293214685374756 2.332689515527805 9.565828925587658 2 1 1
5174 609 6 0.09 5.273230517796427 3.5824551710216 5.824466776546247 -1 1 1
1246 166 1 0.09 3.4765634880105445 -0.3234129230237742 10.30275329421077 2 1 1
1695 222 7 0.09 6.974388482270616 5.217141834239492 8.30833344126247 -1 0 1
1168 155 7 0.09 3.056061451955247 7.183538161323906 11.447169905742536 1 2 0
1692 222 9 -0.27 6.762129579502126 5.117096017481045 9.405784277082372 -1 0 1
1741 228 8 0.05 0.9920394820583143 2.29224733860196 5.911387496730433 1 0 -2
5461 641 6 0.09 2.8420449219668855 8.453619353539791 6.37832933409988 0 0 1
5464 641 7 0.09 4.64941079624853 6.635924255646084 6.119091278228999 0 0 1
5176 609 7 0.09 6.269548538857778 2.819812810341809 3.5417783607278706 -1 1 1
235 32 7 0.09 8.69590453428922 8.176557704721226 7.240512394163595 0 0 1
5171 609 10 -0.66 7.119820548792697 2.7199930938750105 6.084005321172534 -1 1 1
1747 228 7 0.09 0.7904326055774988 1.6285706419920873 8.004084758868462 1 0 -2
5172 609 5 0.43 8.016041291868095 2.827543748455459 5.608186988675405 -1 1 1
1244 166 4 -0.65 3.7581614720200625 1.8068461284868427 10.189436313655166 2 1 1
1687 222 8 0.05 7.125307291838318 3.6538421479839442 9.720716865926102 -1 0 1
4915 580 7 0.09 1.0720508324148605 1.2797317609006003 -0.6478416978816466 1 0 0
1694 222 7 0.09 5.736087751602169 5.460145059048724 9.517385401830033 -1 0 1
5848 684 6 0.09 6.964066296237435 8.257848063941656 5.186056717530325 1 0 0
1170 155 7 0.09 3.6540046093512997 8.078683592147852 10.068787415253338 1 2 0
1688 222 10 -0.66 6.28014811394744 2.847776348008255 8.90236560274347 -1 0 1
1245 166 1 0.09 5.166403691495846 0.18642807748381274 10.108823726037668 2 1 1
1866 241 7 0.09 0.7341489746455501 -0.5514283867245402 10.878400288864283 3 0 1
1689 222 5 0.43 6.425009144281693 2.9917538802865518 7.986586131451427 -1 0 1
1748 228 7 0.09 1.088283163077239 0.3427812508758752 6.823843805257698 1 0 -2
2635 327 6 0.09 7.7582775324670195 0.42740928992960625 11.151412105456862 1 1 1
2634 327 5 0.43 7.45194582068949 -0.29439040160436925 8.6411343608523 1 1 1
1167 155 9 -0.27 3.883335263992678 7.875806574170664 11.106194842873405 1 2 0
1247 166 1 0.09 4.072074017364851 0.30225808600639126 8.761522897160804 2 1 1
5893 689 6 0.09 -0.5779488554273822 5.380440581631322 10.35513450564652 3 0 3
2946 361 7 0.09 -0.8522767121400652 3.300707810335383 8.75958975448802 1 -1 0
5896 689 7 0.09 0.939209132253449 4.257434484233825 8.865616499366835 3 0 3
1046 140 4 -0.65 7.020151267272297 -0.14208413647255336 6.675548477212011 1 0 -1
5890 689 8 0.05 0.4513657494199599 5.791022041060666 10.264012791897578 3 0 3
2636 327 6 0.09 8.489532388227454 1.183021652168172 9.715324598550856 1 1 1
1162 155 8 0.05 3.829904977186506 9.1297468588358 11.86007059538999 1 2 0
2632 327 8 0.05 8.348353701979923 0.2652606195128613 10.271602801419343 1 1 1
2558 318 7 0.09 -0.35618497073416144 7.585370698457519 7.221415941476918 2 1 0
1691 222 6 0.09 6.927114765425449 3.4397308697827453 10.831489514697145 -1 0 1
1863 241 9 -0.27 0.43287218880025646 -0.6681760336326679 11.934772776379491 3 0 1
1050 140 2 0.42 6.899579113319421 0.8805782799661062 6.716814052440448 1 0 -1
1693 222 7 0.09 7.440305052953077 5.725466740888632 10.005957980738698 -1 0 1
1744 228 6 0.09 2.021031072943477 2.711486069603062 6.144761592973251 1 0 -2
1861 241 6 0.09 0.08043528952649326 1.4730004692384102 12.060819246725133 3 0 1
1860 241 5 0.43 2.4321736555752005 0.9203354678334381 11.963926591238193 3 0 1
5891 689 10 -0.66 0.34150800297495176 7.150885096487853 10.119888789600786 3 0 3
1243 166 3 -0.04 4.095274654426689 0.451385177492412 9.81251414614157 2 1 1
1746 228 9 -0.27 0.6167252283915234 1.2656450215259039 6.979466005255655 1 0 -2
5894 689 6 0.09 1.11541876285848 5.567428183761743 11.151569470771108 3 0 3
5892 689 5 0.43 -0.021958999221258768 7.515309600898531 10.965535962637306 3 0 3
5466 641 7 0.09 3.0203360974931153 5.844521099137365 5.911046330418229 0 0 1
1749 228 7 0.09 -0.48496530339988775 0.9475795382030576 7.002162620732532 1 0 -2
2633 327 10 -0.66 7.4923849762175365 -0.6451685614153027 9.532038296865116 1 1 1
5895 689 9 -0.27 1.047972798975163 5.301290711190653 8.966200633090162 3 0 3
5898 689 7 0.09 0.5735320017901586 5.851453128942087 8.126101035172288 3 0 3
5897 689 7 0.09 2.1390283864247976 5.623543330461991 8.910836247063619 3 0 3
1690 222 6 0.09 8.208851667381433 3.5891739993305416 9.535840615480172 -1 0 1
1169 155 7 0.09 4.894478874325919 7.249555135040785 11.066687757299096 1 2 0
2556 318 9 -0.27 -1.1429166352187976 7.386287257009299 6.442818748027234 2 1 0
820 111 1 0.09 3.51701803660114 5.093087570734287 11.897559737658803 -2 -1 0
5188 611 8 0.05 6.371147438314979 -0.5650514537823101 0.583917329013923 1 1 1
4917 580 7 0.09 -0.39233015687810546 0.3179648925962901 -0.7094547650438321 1 0 0
148 21 7 0.09 0.8474286949705059 9.084995317436512 7.594500276190143 1 0 0
4332 515 7 0.09 4.50372426144731 1.308525372568445 -0.7437911691895182 1 2 1
2199 278 7 0.09 9.104087596016992 4.747207183680936 3.8083797401558765 0 0 1
1178 157 4 -0.65 6.213979383495221 7.317436471807811 14.581125021442423 -2 -1 2
1180 157 1 0.09 4.618178972736115 6.441118978292052 15.487534476357144 -2 -1 2
238 33 3 -0.04 3.801069687028594 3.232046854637355 17.587007688419003 0 1 1
1181 157 1 0.09 6.254178570927717 6.450066409058176 16.43873276565886 -2 -1 2
1977 254 5 0.43 -0.10115378969733224 7.054485921786531 13.167198424662326 0 0 0
5998 701 8 0.05 1.7252494486418897 7.082969374738216 16.637689183706602 1 1 0
5999 701 10 -0.66 0.32870325001140177 7.109480671174531 16.733079928045086 1 1 0
2571 320 5 0.43 1.2313550575020833 4.963826167166443 13.994521878387843 0 2 0
6000 701 5 0.43 0.06952711623847851 6.344996497097012 16.1338746833773 1 1 0
4227 504 5 0.43 7.631831353934253 6.224740988860785 14.067651631847756 2 0 0
2707 335 6 0.09 7.4671562110131 0.489170500260941 16.432737953804477 0 2 -1
6002 701 6 0.09 2.1835610756206036 6.1755220949020195 17.07816405768381 1 1 0
818 111 4 -0.65 2.6926103896887903 3.8720865705892757 13.373257782546442 -2 -1 0
2570 320 10 -0.66 0.4344334781182795 5.454567724810859 14.226906628839915 0 2 0
1177 157 3 -0.04 5.516491356893359 6.943044798660117 15.788395268801505 -2 -1 2
1182 157 2 0.42 5.4911565751934965 7.827520825554181 14.099895243371575 -2 -1 2
242 33 1 0.09 4.533090507479204 3.7380900692940555 16.886678771762984 0 1 1
1163 155 10 -0.66 4.294919346869195 8.972483776889288 13.22195401274891 1 2 0
2712 335 7 0.09 7.579099011967891 2.337729741019047 14.622419532187198 0 2 -1
3669 442 5 0.43 -0.0826146596243964 7.512959997937996 18.356141800493354 0 1 0
240 33 1 0.09 3.7177998651978195 2.2038659113483505 17.139589846882643 0 1 1
241 33 1 0.09 2.818217865791027 3.6758365950936644 17.28441425740613 0 1 1
1179 157 1 0.09 5.177340666309963 7.880675371235597 16.254279190977275 -2 -1 2
5298 623 5 0.43 2.9394351611075544 -0.2841636731729361 14.539422135674146 2 1 -2
6003 701 9 -0.27 2.2018904927997545 8.411402193052481 17.239034049545552 1 1 0
1975 254 8 0.05 0.15935871050787997 8.949650018104201 13.479435784140811 0 0 0
2575 320 7 0.09 0.7599186609918651 3.505744129036634 15.69345483456511 0 2 0
3350 406 7 0.09 8.845505973312948 4.983865135014724 19.000086869573078 0 0 -1
6001 701 6 0.09 2.0809155215175936 7.151750169130775 15.560284069606407 1 1 0
189 26 7 0.09 3.264111758411291 -0.20501918339648095 25.65310728874934 3 0 2
2709 335 9 -0.27 8.446022225484445 1.7992201779235284 14.995389479656225 0 2 -1
239 33 4 -0.65 4.0443277729650875 3.4136682138334784 19.00536907457157 0 1 1
2548 317 7 0.09 8.254744062741223 7.391425853344055 19.37157111382033 0 0 -1
4226 504 10 -0.66 8.527422006096709 5.907316979774705 13.896421594863115 2 0 0
817 111 3 -0.04 3.8234972799549327 4.368061951382031 12.670795982203796 -2 -1 0
2577 320 7 0.09 -0.6422214372504886 4.421629467167337 16.644423765217315 0 2 0
6006 701 7 0.09 3.319562103590558 8.495265058301982 17.1117616033783 1 1 0
4233 504 7 0.09 8.444775962126691 7.59416188941662 16.232598448450847 2 0 0
1976 254 10 -0.66 -0.4204332033376643 7.844193407896961 12.76163787992835 0 0 0
4229 504 6 0.09 8.594540905443713 5.146205356164983 15.834812711312221 2 0 0
2576 320 7 0.09 -0.89240000290264 2.8697443824644475 15.908375087126867 0 2 0
6004 701 7 0.09 1.95580882547263 8.375063819384506 18.282492851725063 1 1 0
3349 406 7 0.09 8.978783191828164 4.122654779062637 20.550294968587952 0 0 -1
3523 426 8 0.05 -0.6764596789249047 0.9216491064126173 24.756999891184865 2 0 -1
2708 335 6 0.09 7.797741306767485 -0.25206376898219995 14.910531542787238 0 2 -1
821 111 1 0.09 4.520574085904562 4.8614999956991145 13.321401006547559 -2 -1 0
5296 623 8 0.05 4.842512567860891 -0.49307077405504096 14.693809093277743 2 1 -2
3149 384 6 0.09 1.1223847100022772 4.296682709727555 25.453865315078495 1 0 1
3527 426 6 0.09 -0.9900505362160253 0.23982210283120797 25.585314584949845 2 0 -1
658 88 7 0.09 -0.7428361530503743 8.258848930542975 25.76704677123291 -1 -1 -1
2704 335 8 0.05 8.257404517342387 0.4530765613403085 15.62859267158511 0 2 -1
5300 623 6 0.09 5.401084425065734 0.35287061497764927 14.231742209378133 2 1 -2
2574 320 9 -0.27 -0.3230869915509089 3.8098832826792233 15.768167814401625 0 2 0
1978 254 6 0.09 1.25411720648752 8.737804386404651 13.461840759813308 0 0 0
3668 442 10 -0.66 -0.4017611845943486 7.75499147199397 19.22962054348364 0 1 0
3346 406 6 0.09 6.890056798605164 3.8430967703627275 18.445976531339095 0 0 -1
1859 241 10 -0.66 1.9883057975750242 0.8940703934629457 12.849753706512475 3 0 1
5297 623 10 -0.66 3.6402941157422184 0.09014477674982746 15.139760261776141 2 1 -2
1862 241 6 0.09 0.1560994493191159 0.5506863240240152 13.715789802561135 3 0 1
2569 320 8 0.05 -0.5351031857864659 4.509768453391923 14.445121109508372 0 2 0
2711 335 7 0.09 8.995485624941841 2.4010748819999925 15.722211091336451 0 2 -1
822 111 2 0.42 2.6456291150422016 2.920399077363887 13.200687308173698 -2 -1 0
2572 320 6 0.09 -0.40225980330879985 3.7429953407384726 13.625868769569452 0 2 0
5087 599 7 0.09 7.318857684045831 -0.4943827507965538 18.580984510898283 1 0 1
1858 241 8 0.05 0.6259619569262986 0.6391316723121727 12.706099942053411 3 0 1
1979 254 6 0.09 0.06508126794378999 8.875256339553486 14.557540644084709 0 0 0
3524 426 10 -0.66 -0.7780939413783152 0.22378444678250986 23.570241177752354 2 0 -1
296 40 1 0.09 0.475706676890465 5.319249533972276 21.471541603029156 -1 2 1
3145 384 8 0.05 1.9898885192191638 4.883519404453228 25.17368187540483 1 0 1
3348 406 9 -0.27 8.719151943487885 4.040567100552048 19.495117316126283 0 0 -1
4756 563 8 0.05 6.329015564287014 5.397183170781775 24.026902742013643 1 0 -1
5086 599 7 0.09 6.2507810047673695 -0.47354570909497634 20.053329171848578 1 0 1
2546 317 6 0.09 7.374520848280467 8.363267217673421 21.617027877264228 0 0 -1
294 40 1 0.09 -0.2458234791687104 4.619437980165586 19.96148141088929 -1 2 1
192 27 1 0.09 6.330054574647038 0.31229602189125494 25.51798927979745 0 0 1
3147 384 5 0.43 3.618683488572456 3.956921673646172 25.37525631261909 1 0 1
3148 384 6 0.09 1.8348385763649229 6.0273193118648605 25.29039437313936 1 0 1
2549 317 7 0.09 9.081239164803602 6.560138960430823 20.732848451805175 0 0 -1
190 27 3 -0.04 6.281199412209695 1.0218365694743043 24.677319594355872 0 0 1
652 88 8 0.05 -0.36786497289043896 7.780192780142039 23.67743052198827 -1 -1 -1
3709 446 7 0.09 4.842681314926431 7.25061658524943 22.08818222156988 1 0 0
653 88 10 -0.66 0.9526582252406848 8.372447126560568 23.631085593405533 -1 -1 -1
3710 446 7 0.09 3.254991569544374 7.580445660698842 22.907541007852913 1 0 0
657 88 9 -0.27 -1.2186271835711187 8.338387269649298 24.758218635635302 -1 -1 -1
191 27 4 -0.65 5.7191530168883675 2.27282146811316 25.073247568378154 0 0 1
3707 446 6 0.09 3.080167210260858 6.004305279619349 20.760893777592305 1 0 0
3150 384 9 -0.27 2.3163364895505065 4.6134419255240795 23.697932573869473 1 0 1
3708 446 9 -0.27 3.7976286741404914 7.674371002472917 21.914077054041588 1 0 0
656 88 6 0.09 -0.7944858301433773 7.821914544789587 22.62713503932726 -1 -1 -1
4719 558 7 0.09 2.6870269840889938 0.09397138213525535 19.730820417923432 1 1 1
243 33 2 0.42 3.1758185914422024 3.120550328329932 19.339323648512224 0 1 1
3345 406 5 0.43 5.623078923191447 4.081588242902604 20.121547336125836 0 0 -1
2542 317 8 0.05 8.322428951536743 8.706662545880292 21.10446744500234 0 0 -1
3343 406 8 0.05 7.291508041972394 3.5968802191214184 19.49591177671019 0 0 -1
4759 563 6 0.09 6.224813887946513 5.314538730039714 25.128473749195567 1 0 -1
292 40 3 -0.04 -0.41854530901679454 4.83273714207851 21.020471860594164 -1 2 1
3151 384 7 0.09 2.4496337421357786 3.5422368349860163 23.56430317042022 1 0 1
4714 558 6 0.09 0.6987236761594409 0.5967989404618295 21.0027763807295 1 1 1
655 88 6 0.09 -0.18265453135242948 6.6496054785128065 23.921667149317866 -1 -1 -1
2547 317 9 -0.27 8.91069493916885 7.613975921797913 20.281893772300407 0 0 -1
5972 698 10 -0.66 7.8827490783941485 9.13093730590957 24.16787783546183 0 2 0
4717 558 7 0.09 2.902140466202189 -0.655944776954873 21.42738534663858 1 1 1
4757 563 10 -0.66 5.98700213846255 4.288477207405535 23.269205347031527 1 0 -1
3526 426 6 0.09 0.3795559747931292 1.2063027624077391 24.978986032078154 2 0 -1
3711 446 7 0.09 3.868040071358956 8.73424266542089 21.769224831835572 1 0 0
3704 446 10 -0.66 1.6843486483787315 7.696568457026517 20.869213594410166 1 0 0
4716 558 9 -0.27 2.8441694710356655 0.24949633104321434 20.77624636639818 1 1 1
3347 406 6 0.09 7.127318508093111 2.542308295248233 19.787398535767352 0 0 -1
654 88 5 0.43 1.4287673947174473 8.071221995342631 22.8575283251209 -1 -1 -1
4713 558 5 0.43 0.8962667189822171 2.7397266623743928 20.78692830843579 1 1 1
4712 558 10 -0.66 1.561210852502526 2.2376509003309257 20.356221487173766 1 1 1
4762 563 7 0.09 8.213760173660226 6.3878813970346835 24.513210265809356 1 0 -1
3153 384 7 0.09 1.5854422707441014 4.828023241725827 22.978051768978954 1 0 1
194 27 1 0.09 7.24427472702761 1.236490822669233 24.24733009981177 0 0 1
4764 563 7 0.09 8.389601903931274 4.882060665738734 23.69638488578238 1 0 -1
4763 563 7 0.09 7.945619406888705 6.2777054363803035 22.725563466646552 1 0 -1
3705 446 5 0.43 1.195418651770872 7.527825285294703 20.09345894537992 1 0 0
193 27 1 0.09 5.670780566299247 0.6509732557627712 23.88916074792836 0 0 1
3344 406 10 -0.66 6.501301202889279 4.359626897106993 20.3968559312664 0 0 -1
3152 384 7 0.09 3.2710049813131237 5.068914079346234 23.316293968076337 1 0 1
3703 446 8 0.05 2.9786286757053517 7.132201208610947 20.701695342979242 1 0 0
4715 558 6 0.09 1.5970975230042188 1.3150315371173362 22.2900607159765 1 1 1
195 27 2 0.42 5.877292606252548 2.9456055767672087 24.388171092569063 0 0 1
4760 563 6 0.09 5.6599825625431395 6.251282615167186 23.733617954064872 1 0 -1
5973 698 5 0.43 8.317734482111508 8.753886123722378 25.02538383338796 0 2 0
4711 558 8 0.05 1.6365692314778508 1.0853046658432888 21.201001775196993 1 1 1
4761 563 9 -0.27 7.801682871941102 5.771478700740789 23.7100910204224 1 0 -1
293 40 4 -0.65 -0.5216798656021264 3.5592308334554827 21.716103771610552 -1 2 1
3706 446 6 0.09 3.4234484652966017 7.487954826740468 19.786513035172067 1 0 0
4758 563 5 0.43 6.252539622065603 4.488475249639935 22.365439317656715 1 0 -1
4718 558 7 0.09 3.744989719231736 0.8613498422227752 20.74980874262451 1 1 1
4291 511 6 0.09 4.753174179002139 2.2484987388467537 27.74054640983694 2 1 -1
4288 511 8 0.05 3.8760894882951282 2.129570659265233 28.37823830934411 2 1 -1
4292 511 6 0.09 3.104119286804578 1.5280875609184306 27.863280615766328 2 1 -1
4293 511 9 -0.27 4.287564215399821 1.5045930494616622 29.737316002780705 2 1 -1
4296 511 7 0.09 3.3655742674084284 0.9890581921518096 30.04003487894752 2 1 -1
4290 511 5 0.43 3.1260856546634024 3.8718450961945337 27.862886977881637 2 1 -1
4289 511 10 -0.66 3.323555752225631 3.4042923947939503 28.71257872526742 2 1 -1
4295 511 7 0.09 5.157084234054352 0.8464062919776674 29.577095884358144 2 1 -1
4294 511 7 0.09 4.627999864004312 2.3104934490005187 30.463336233974115 2 1 -1
687 92 2 0.42 6.90455406036018 6.537620403265458 29.35321245851667 0 1 -2
683 92 4 -0.65 6.630268586372686 6.6888396738276965 28.404048079133055 0 1 -2
3776 454 10 -0.66 6.793362168068349 6.564499408986887 31.198494766819945 2 1 1
3801 456 7 0.09 7.134433849838835 3.644051534852985 29.12930710093059 -1 -1 -2
3777 454 5 0.43 6.77266446744961 5.692523105421052 31.661692978456813 2 1 1
3798 456 9 -0.27 8.241345184469125 3.5538737466561026 29.091577695124002 -1 -1 -2
3146 384 10 -0.66 3.170010917355248 4.617293381575874 25.898807894734457 1 0 1
3539 427 7 0.09 8.62086307972165 3.241415795917712 36.64327067629361 3 1 -2
684 92 1 0.09 4.529408244341577 6.868478101848701 28.543890220975204 0 1 -2
5244 617 5 0.43 7.9606181053996 7.744718683938553 27.352778607985215 1 1 1
4386 521 7 0.09 -1.2361379193241875 1.0999083910103378 27.358115014445467 0 1 1
5506 646 6 0.09 -0.9038803492389864 6.7453849704235305 32.8524692392333 0 1 0
3799 456 7 0.09 8.754423884049327 4.126971955475578 29.8860085888684 -1 -1 -2
5243 617 10 -0.66 8.375316551142053 8.502587621864842 26.945202612448373 1 1 1
686 92 1 0.09 5.1895585371275965 5.38077106372702 29.110048402641468 0 1 -2
682 92 3 -0.04 5.3014772745405745 6.141057281368673 28.30938099926648 0 1 -2
844 114 7 0.09 1.1579213693855381 6.307636524628811 27.88319882770814 1 0 0
685 92 1 0.09 5.143554101285361 5.667449696355081 27.31791955779193 0 1 -2
846 114 7 0.09 0.45333558011608766 7.531304689290572 29.156261911672967 1 0 0
3775 454 8 0.05 7.548070299327959 7.478226482276039 31.933299777484855 2 1 1
3796 456 6 0.09 8.426709371020607 3.242156456195823 27.052629909314895 -1 -1 -2
3800 456 7 0.09 8.42242227429054 2.487080439670282 29.215158541113208 -1 -1 -2
3045 372 7 0.09 1.75880554718001 5.755424401709501 31.728636247933714 2 0 1
3042 372 9 -0.27 2.8436266757683653 5.979633187794971 31.430826708106558 2 0 1
3780 454 9 -0.27 7.869851117307494 8.634445778193118 30.965770997903658 2 1 1
3037 372 8 0.05 3.2282571550493344 7.423325538380423 31.67835351391686 2 0 1
3797 456 6 0.09 8.262983567110538 4.956158721528049 27.506303309359392 -1 -1 -2
3779 454 6 0.09 6.968866683911672 7.946201823282861 32.7610561730526 2 1 1
4384 521 7 0.09 -0.5226679673229478 1.5749998404528158 28.99258176352799 0 1 1
3793 456 8 0.05 8.710295275844338 3.9827975038628214 27.773519036648487 -1 -1 -2
845 114 7 0.09 0.6547255098194982 5.846529646073074 29.496833989866456 1 0 0
3782 454 7 0.09 8.326524117297312 8.28511239939473 30.03541655274829 2 1 1
3778 454 6 0.09 8.510938111321137 6.996943124634698 32.244642763849505 2 1 1
5503 646 8 0.05 -0.6757730290261477 7.818351533892502 32.648741812723735 0 1 0
1021 137 6 0.09 3.1513453824524325 -0.8438517458138525 32.96015445002291 -1 0 0
5626 659 7 0.09 5.110202769218044 3.9129904289146653 31.969970336680944 1 0 0
3044 372 7 0.09 2.983574433660367 5.812966334879885 30.330120062521516 2 0 1
839 114 10 -0.66 -0.8886544245872953 5.108742256172781 27.31023025752345 1 0 0
5862 685 7 0.09 1.6577068897765557 2.8374176672508393 32.75088035789586 2 0 0
3040 372 6 0.09 4.287879116293863 7.564878945671291 31.464536088712954 2 0 1
3041 372 6 0.09 2.726693411846088 8.085343255222016 30.921729702970563 2 0 1
1848 239 7 0.09 7.598761861979339 -0.10615264815057568 29.672780200515096 1 0 1
1844 239 6 0.09 8.650920100915211 0.6719705896012287 32.06410419474498 1 0 1
3043 372 7 0.09 3.502150448411366 5.22489281712939 31.98781934124876 2 0 1
843 114 9 -0.27 0.4608296666026195 6.526604759376272 28.714213547940922 1 0 0
84 12 1 0.09 7.524562789970066 0.8715455981706566 34.66835443224792 1 -1 0
1845 239 9 -0.27 7.928393767704776 -0.7104639034331801 30.590776821049452 1 0 1
86 12 1 0.09 8.722905601260448 -0.19934222225064746 35.49598656180075 1 -1 0
5507 646 6 0.09 -0.24305543369647364 8.011766032711547 31.58142655774428 0 1 0
187 26 7 0.09 1.9554957614197188 -0.011976844903326844 26.75346418835842 3 0 2
5625 659 9 -0.27 5.281311725997573 3.5211288740946385 32.98954260531549 1 0 0
838 114 8 0.05 -0.8904657898314301 6.263486148180353 28.085472935110595 1 0 0
5439 638 7 0.09 7.265425073870798 8.356881423475583 37.19928048908466 1 2 -1
4916 580 7 0.09 0.9116823833452901 0.05171769121947489 38.0647885730927 1 0 -1
4909 580 8 0.05 -0.21876555476998116 1.8174887682883596 37.74819425205458 1 0 -1
5504 646 10 -0.66 0.2280674300457055 8.271345405782377 33.64362635196618 0 1 0
3039 372 5 0.43 3.280161795945948 8.637764418588697 33.29126833942043 2 0 1
2470 309 8 0.05 -1.236668615943018 7.2042777812718395 37.04545792182636 0 0 -1
82 12 3 -0.04 7.745295462562503 -0.14388040623260234 34.98581076184072 1 -1 0
85 12 1 0.09 7.091774492654094 -0.47188011252731354 35.82640720872463 1 -1 0
3038 372 10 -0.66 2.9616702735628646 7.740556705413804 33.08041265153847 2 0 1
3534 427 5 0.43 7.518016959586742 4.654609257668132 38.2849852312318 3 1 -2
760 102 7 0.09 4.209570782798539 6.038502829303449 38.03065992614954 0 0 0
2471 309 10 -0.66 -0.7252702869920475 6.865674295095921 35.80717657996246 0 0 -1
4331 515 7 0.09 5.433642594717048 2.801157176573201 39.16855851851587 1 2 0
1840 239 8 0.05 9.097292336928547 -0.059049000604209145 31.308452042959026 1 0 1
1846 239 7 0.09 7.081498931705564 -0.7256624161772502 31.299511889937648 1 0 1
186 26 9 -0.27 2.432565452884783 -0.801063081399664 26.139462361019497 3 0 2
5857 685 6 0.09 1.2226392937612443 4.850764227292688 33.96802241591589 2 0 0
5438 638 7 0.09 8.582650166064397 7.608276278032957 36.13333685024441 1 2 -1
5437 638 7 0.09 7.321469358874364 8.721458664744631 35.531607729270384 1 2 -1
5505 646 5 0.43 1.1112366299781238 7.895657581531561 33.45869489222936 0 1 0
4328 515 6 0.09 4.039320140187791 1.3752636510831016 36.74745170681488 1 2 0
2475 309 9 -0.27 -1.0793963351340456 5.997100203396445 37.95779702914892 0 0 -1
2477 309 7 0.09 -0.08020926495250169 5.997014024982075 38.39400012126596 0 0 -1
4910 580 10 -0.66 -0.5586251649430928 1.3983860543838187 36.39381692210042 1 0 -1
5433 638 5 0.43 6.647202140338162 4.8831344239882055 36.24028668647794 1 2 -1
4329 515 9 -0.27 4.579607645920515 2.223015672917999 38.70202991730452 1 2 0
762 102 7 0.09 3.3043266793672625 7.5125364578186655 37.29745375137214 0 0 0
5436 638 9 -0.27 7.521069804640591 7.938151777710367 36.20513184200527 1 2 -1
757 102 6 0.09 2.0585556759586705 6.286277344707016 35.936554821701606 0 0 0
761 102 7 0.09 2.435430685549463 6.567909234755925 38.536720358119126 0 0 0
4912 580 6 0.09 -1.1130578409734422 2.246621090313669 38.257348695515226 1 0 -1
4914 580 9 -0.27 0.382588936371973 0.8112806204839631 38.72488988478696 1 0 -1
5620 659 8 0.05 6.7384393209215245 3.207686248733536 33.25900419803548 1 0 0
5860 685 7 0.09 0.5856714515403907 1.8432403002158866 33.85467747577941 2 0 0
759 102 9 -0.27 3.214499718435558 6.445778348776713 37.73528543745725 0 0 0
5434 638 6 0.09 5.636144213304064 6.817463249906434 35.915373990694476 1 2 -1
1026 137 7 0.09 3.276062734685068 -0.7266602408212206 35.43279142158706 -1 0 0
5622 659 5 0.43 8.39386326306039 4.157020548882634 33.076769192197055 1 0 0
1022 137 6 0.09 4.722907718893941 0.11328761865548431 33.40273380637215 -1 0 0
2474 309 6 0.09 -0.5889507279952247 8.022841650559176 37.38606989249424 0 0 -1
758 102 6 0.09 3.666241456204273 5.434100978877868 35.87549360480953 0 0 0
3535 427 6 0.09 8.298501914161609 2.369577614273868 38.88222937512806 3 1 -2
5856 685 5 0.43 -0.3634739379468359 4.977339118018498 35.358351659281055 2 0 0
4911 580 5 0.43 -0.5765634805181454 2.2034700266276435 35.81871118481454 1 0 -1
5859 685 9 -0.27 1.2849771318304817 2.7381585742337573 33.83002447534778 2 0 0
5435 638 6 0.09 7.007599386268234 6.558553130710556 34.83217508776465 1 2 -1
2472 309 5 0.43 -0.7193769858860377 7.7480247291702184 35.3611533512868 0 0 -1
5855 685 10 -0.66 0.012428934595019925 4.083038493216122 35.36287946050814 2 0 0
5854 685 8 0.05 0.5013109495366415 4.043833345196609 34.051330043494644 2 0 0
5861 685 7 0.09 2.149883855409267 2.588676259189841 34.439811407090815 2 0 0
755 102 10 -0.66 2.3152942818540105 4.3346242796628 37.03402573487483 0 0 0
3167 386 6 0.09 -0.045200664017545744 -0.8608824231213495 33.49784829864135 0 0 -1
754 102 8 0.05 2.7461681548107553 5.604434053384329 36.509109690755466 0 0 0
5628 659 7 0.09 4.723068793155664 2.565485472241026 33.13740508135673 1 0 0
4324 515 8 0.05 4.810027380025071 1.9934885968881013 37.20711972108192 1 2 0