LAMMPS data file via write_data, version 29 Aug 2024, timestep = 7209227, units = real

5490 atoms
10 atom types
4761 bonds
8 bond types
7335 angles
10 angle types
6279 dihedrals
7 dihedral types

-0.5408652733162178 39.481985273326075 xlo xhi
-0.19736526871727733 38.93447526871265 ylo yhi
-0.0942375148532193 38.53245751484079 zlo zhi

Masses

1 1.008
2 1.008
3 12.011
4 15.999
5 1.008
6 1.008
7 1.008
8 12.011
9 12.011
10 15.999

Pair Coeffs # lj/charmmfsw/coul/long

1 0.024 2.38761 0.024 2.38761
2 0.046 0.400014 0.046 0.400014
3 0.078 3.65268 0.01 3.38542
4 0.1921 3.14487 0.1921 3.14487
5 0.046 0.400014 0.046 0.400014
6 0.035 2.38761 0.035 2.38761
7 0.024 2.38761 0.024 2.38761
8 0.056 3.58141 0.01 3.38542
9 0.078 3.6527 0.01 3.38542
10 0.1921 3.1449 0.1921 3.1449

Bond Coeffs # harmonic

1 322 1.111
2 428 1.42
3 545 0.96
4 222.5 1.528
5 309 1.111
6 322 1.111
7 428 1.42
8 545 0.96

Angle Coeffs # charmm

1 57.5 106 0 0
2 35.5 108.4 5.4 1.802
3 45.9 108.89 0 0
4 50 106 0 0
5 34.6 110.1 22.53 2.179
6 35.5 109 5.4 1.802
7 34.6 110.1 22.53 2.179
8 35.5 108.4 5.4 1.802
9 75.7 110.1 0 0
10 45.9 108.89 0 0

Dihedral Coeffs # charmmfsw

1 0.18 3 0 1
2 0.24 3 0 1
3 0.14 2 0 0
4 1.13 1 0 0
5 0.16 3 0 1
6 0.18 3 0 1
7 0.16 3 0 1

Atoms # full

4201 559 3 -0.04 7.553855859599164 3.6448235812351677 4.128715995880183 -1 0 0
4203 559 1 0.09 8.382283022388703 4.240218829683865 4.7102482818834766 -1 0 0
4206 559 2 0.42 6.673422891417942 4.839675029439821 2.9836153602483613 -1 0 0
4202 559 4 -0.65 6.4481977358603295 4.503687146931419 3.8702528616567418 -1 0 0
624 81 7 0.09 6.673891813356205 8.65007244682151 1.3886096630649447 0 -1 1
4205 559 1 0.09 8.003533735375726 3.2156909202987816 3.1368635080153933 -1 0 0
1521 201 2 0.42 5.697146414758167 4.401544923607574 5.983255938071934 0 0 1
2937 392 5 0.43 6.51792236501947 1.549258184879734 1.5282615353148352 1 0 0
622 81 7 0.09 6.114241949385794 7.530970846736623 0.026964048175980318 0 -1 1
2938 392 6 0.09 4.443705688512347 1.3227220272478053 1.5631808175658815 1 0 0
621 81 9 -0.27 6.908553193374268 7.698105922043546 0.8329301710070305 0 -1 1
3444 457 2 0.42 4.825051209329535 3.9051711785923366 3.9606830880833073 -1 1 1
3442 457 1 0.09 4.124627315224902 5.475731606864316 2.565800095965297 -1 1 1
4204 559 1 0.09 7.171575576991265 2.865439051835187 4.750903956677482 -1 0 0
3443 457 1 0.09 2.4558623258958465 5.363969716721993 3.425734661114081 -1 1 1
2936 392 10 -0.66 6.3115137130576215 1.0964160457210923 2.4032619662824706 1 0 0
3441 457 1 0.09 4.033874632458566 5.952826248782677 4.317188003283882 -1 1 1
3439 457 3 -0.04 3.5433343734316063 5.257916351688449 3.558814131193385 -1 1 1
3440 457 4 -0.65 3.837506680454128 3.995277525033715 3.956133728123345 -1 1 1
891 116 1 0.09 0.09482093572128347 7.942124666464823 2.018207374265838 0 2 1
5112 678 2 0.42 1.7640177488786417 0.7955572906058496 6.119462236402435 2 3 1
497 66 6 0.09 4.96054239550375 2.342531149411559 6.022811966543721 -2 0 0
889 116 3 -0.04 -0.11565853388311131 8.707103460410721 2.823102816512404 0 2 1
620 81 6 0.09 6.016510640259993 6.501844657626326 2.4034146034054378 0 -1 1
4107 547 5 0.43 7.486925271749424 0.4495207174349195 3.620591009772106 -1 0 2
3009 400 7 0.09 2.208249907914277 3.775968079810848 0.6070495038967495 1 2 1
617 81 10 -0.66 6.9601744286167655 5.329636063270767 0.9606605453188208 0 -1 1
1465 194 7 0.09 -0.3841537423803242 4.038166566667326 4.24438606770616 -1 3 -2
619 81 6 0.09 7.706445663990415 6.369310527323401 2.4473278090016612 0 -1 1
618 81 5 0.43 6.306576491208136 5.404414235081862 0.30172649263365126 0 -1 1
3045 405 2 0.42 2.4577572944773523 8.97518796063578 3.938638477063235 0 1 1
3004 400 6 0.09 -0.3990281883444472 5.531507014777066 0.8284299433107342 1 2 1
3041 405 4 -0.65 3.323149979746239 8.554384374075227 4.184840622665023 0 1 1
616 81 8 0.05 6.902296674045688 6.442283076599106 1.7588201261141663 0 -1 1
493 66 8 0.05 4.053021463830008 1.8323936677014259 6.408287427261701 -2 0 0
1980 264 1 0.09 6.29249450509649 9.506038029306518 7.8569641669900925 0 1 0
3008 400 7 0.09 0.806127509341948 3.5739728222424816 1.6526104300708881 1 2 1
495 66 5 0.43 3.039861149972106 2.7828744940820664 5.0306070389624375 -2 0 0
494 66 10 -0.66 3.0483208493363736 1.8998347471730255 5.409569043662254 -2 0 0
3005 400 6 0.09 1.1537968613269063 6.044114736619389 1.6203729257885238 1 2 1
5108 678 4 -0.65 0.9696524342734505 0.20039793888077678 6.0620841192576425 2 3 1
1518 201 1 0.09 5.015935288593238 6.571668922060143 6.5699860396075325 0 0 1
892 116 1 0.09 -0.34824592366681784 8.226825661105886 3.7180726162182705 0 2 1
2935 392 8 0.05 4.972326352239893 0.62708769822563 2.3118233068551555 1 0 0
2313 306 5 0.43 7.483432022935283 3.2976468325209285 0.3569962342806891 1 1 2
435 57 1 0.09 0.16859454266163165 0.9613483471915951 2.5479110634719127 1 1 -1
5181 688 1 0.09 5.8642606624912 8.31667833941103 12.430621591979444 -1 0 1
1520 201 1 0.09 6.739550585166968 6.428307039582636 7.097172931274276 0 0 1
496 66 6 0.09 3.8234919674870884 2.446811200394424 7.291437582805156 -2 0 0
3006 400 9 -0.27 1.1433233702956158 4.044657938400504 0.6885051283748295 1 2 1
498 66 9 -0.27 4.477792617063479 0.46869352381503504 6.773711300380835 -2 0 0
890 116 4 -0.65 1.0118492154639334 9.579679133455182 3.0918447964513995 0 2 1
5144 683 4 -0.65 0.4549918344156896 2.7214054713807116 11.778460982249822 -1 1 0
4124 549 10 -0.66 2.66191449476351 5.660045850516803 10.532492384322927 0 0 0
5107 678 3 -0.04 0.5434381838471651 -0.09013618813297417 7.419910867039098 2 3 1
623 81 7 0.09 7.861611527509586 7.778363544527307 0.25017466443492664 0 -1 1
4126 549 6 0.09 3.136311235530909 7.254707110385668 11.735187632144191 0 0 0
500 66 7 0.09 5.258938479930206 0.5120261007682595 7.557622129856567 -2 0 0
1978 264 3 -0.04 6.6514501419645145 9.45307211315659 8.942650337491232 0 1 0
5146 683 1 0.09 -0.10747850897398176 4.6199899049205415 12.051471766369602 -1 1 0
5109 678 1 0.09 0.48046660136123553 0.9044758079582014 8.010868623994513 2 3 1
1519 201 1 0.09 5.423497225373514 6.049414346655405 8.3100902679116 0 0 1
4925 653 7 0.09 5.550089767322015 2.909530847952951 10.939242692050897 -2 -1 0
2384 315 1 0.09 8.3047996644832 4.404282874531682 10.976218002689553 -1 0 1
4106 547 10 -0.66 8.120480530625738 0.16083992035017564 4.271118744948294 -1 0 2
4922 653 6 0.09 3.59248466127738 1.1506157863650215 11.125971138965156 -2 -1 0
2383 315 1 0.09 6.951724665526056 5.224965902675251 10.135465739403081 -1 0 1
4125 549 5 0.43 3.0105859238389265 4.706938640059745 10.453306663710746 0 0 0
1517 201 4 -0.65 5.69844498434062 4.556114487119876 6.940464268424992 0 0 1
2381 315 4 -0.65 7.890160035662209 3.65884591821022 8.968025033826184 -1 0 1
2385 315 2 0.42 6.995808926810393 3.634504247012899 8.440429696209844 -1 0 1
1919 256 4 -0.65 8.837233613341699 8.249386168783625 11.831395776273776 -1 -2 0
2382 315 1 0.09 8.512046826263434 5.417355921307524 9.448152976338017 -1 0 1
4924 653 7 0.09 5.9496153252646655 1.4401841712746388 9.944929851525675 -2 -1 0
1658 220 4 -0.65 1.1515081593982088 7.920558861573019 9.755727052404 1 -2 -2
1609 213 6 0.09 0.17460867844107575 3.8289502378139355 6.600762314653423 1 1 1
1610 213 6 0.09 1.334686084531874 3.9088319149637236 8.151856650275587 1 1 1
1983 264 2 0.42 7.294514834339999 8.196690427101675 10.21980553694786 0 1 0
1979 264 4 -0.65 6.7028561940695495 8.070565501447428 9.43040214624513 0 1 0
1657 220 3 -0.04 1.513827154076263 9.074637301092729 10.49482388239211 1 -2 -2
4926 653 7 0.09 5.412543386492462 2.8818396830274504 9.194743897534194 -2 -1 0
2380 315 3 -0.04 7.929534358340012 4.724684289386013 9.974460112344433 -1 0 1
4918 653 8 0.05 3.8011720575856582 1.8106390610755496 10.211197233427324 -2 -1 0
1662 220 2 0.42 1.5630062519761667 7.13588651138374 10.168098627027064 1 -2 -2
1661 220 1 0.09 2.4538726229809558 9.459498230674908 10.148022102056334 1 -2 -2
5143 683 3 -0.04 -0.24420718270978642 3.8018912939182123 11.285180445760213 -1 1 0
1660 220 1 0.09 1.497956327993867 8.828626198473126 11.562444716702792 1 -2 -2
4919 653 10 -0.66 3.023144963579432 2.935093892832197 10.302128109684629 -2 -1 0
4923 653 9 -0.27 5.260983361544149 2.2378813602949417 10.08383984926446 -2 -1 0
5364 710 2 0.42 -0.35972200042492314 8.457974290506407 8.72837317838399 0 -2 3
499 66 7 0.09 3.620786406337716 -0.04972355225503264 7.3084163275743315 -2 0 0
1607 213 10 -0.66 -0.03994322775890691 5.343530392690564 7.999460218714825 1 1 1
4921 653 6 0.09 3.5407432348295504 1.2906405388729698 9.245192227272241 -2 -1 0
1614 213 7 0.09 2.3853133664363053 4.518014344387332 5.865721209633997 1 1 1
1611 213 9 -0.27 1.808464815255396 5.2301841162816265 6.468272707452833 1 1 1
1606 213 8 0.05 0.7656221129757557 4.469921633272938 7.340947696148239 1 1 1
3042 405 1 0.09 2.7356846994506205 8.927995802501375 6.116976822795001 0 1 1
1516 201 3 -0.04 5.683097987893775 5.960942953441032 7.1865159439421555 0 0 1
1612 213 7 0.09 2.5552725835340238 5.810367440665781 7.110508136384895 1 1 1
1608 213 5 0.43 0.5844208524398138 5.735413521496725 8.661347721258295 1 1 1
4127 549 6 0.09 4.447239094204073 6.618177955158736 10.604793123207505 0 0 0
4123 549 8 0.05 3.5854104270098217 6.36932179219903 11.316538767933919 0 0 0
1613 213 7 0.09 1.3651240995665417 5.92958984513518 5.643537598534625 1 1 1
4920 653 5 0.43 2.2695992909494693 2.8243043201024043 10.880025173307136 -2 -1 0
437 57 1 0.09 0.5482472049596121 -0.1424671276025151 1.1275080151894232 1 1 -1
3043 405 1 0.09 4.304721591015283 8.166433471463971 5.964938065539483 0 1 1
2939 392 6 0.09 4.474413127424526 0.5097226774679677 3.2670134435138483 1 0 0
433 57 3 -0.04 0.9062803850878616 0.252607624095187 2.097470607937675 1 1 -1
4131 549 7 0.09 4.545682886221767 4.537978947452477 11.947164147700812 0 0 0
2312 306 10 -0.66 7.130128140359185 2.4487734494453823 0.031092616470447976 1 1 2
3001 400 8 0.05 0.732093777015915 5.491805408753395 0.7183854645701894 1 2 1
4128 549 9 -0.27 4.063749976031021 5.417675353556368 12.385911210918888 0 0 0
436 57 1 0.09 1.8816698935200624 0.7694592235894423 1.9943470079756582 1 1 -1
3040 405 3 -0.04 3.652542996282156 8.924312922876206 5.53737425854507 0 1 1
5147 683 1 0.09 0.11832472870611543 4.290789602488152 10.298163967917162 -1 1 0
4819 639 1 0.09 9.158461531065877 2.2685866816414837 6.748174380252041 -2 2 -1
5152 684 1 0.09 0.05680436872048911 7.737233742229044 12.467109730631172 1 0 2
4306 572 1 0.09 9.218049687763276 9.331389027302354 7.066975788052849 0 -3 1
5361 710 1 0.09 -0.4676730925425174 8.414418762943319 6.360108062279419 0 -2 3
5279 700 1 0.09 7.2828280926917035 2.735904568716857 12.514305588876717 1 2 -1
5148 683 2 0.42 0.05582040527032195 2.370125068146652 12.569258198368985 -1 1 0
971 127 7 0.09 1.9118319472764123 1.7405425374996062 14.598208534653148 1 0 1
2148 286 5 0.43 7.461655702294157 6.86113482543989 18.67577721612634 1 0 -1
4341 576 2 0.42 6.461856419063734 6.4068841776508965 15.799461106792185 0 0 1
5276 700 4 -0.65 7.608349155675061 1.3466133154176898 14.06009448222763 1 2 -1
5280 700 2 0.42 6.716140948920118 0.8922548899047147 13.817666131495159 1 2 -1
969 127 9 -0.27 2.7382875364077184 1.2310192817801666 14.058362564860532 1 0 1
5179 688 3 -0.04 5.928465478923316 8.33672456450735 13.594113817404029 -1 0 1
4301 571 1 0.09 1.1476440931451124 5.896274450834858 16.513143600697365 2 0 -1
4337 576 4 -0.65 6.398418797459051 6.550501072671979 16.83595992560883 0 0 1
2764 368 8 0.05 8.33394261678112 1.9865320958546682 17.44131249920228 2 3 1
5180 688 4 -0.65 6.830061351438042 7.396029943789357 14.098941035125044 -1 0 1
4339 576 1 0.09 4.376600890902274 6.896455605785189 16.586131713556313 0 0 1
5149 684 3 -0.04 0.36882764944865154 7.636865158667651 13.509809230947159 1 0 2
5275 700 3 -0.04 7.579305418040722 2.7087409565063263 13.59237870878599 1 2 -1
4298 571 4 -0.65 2.029105277785237 4.199342566932334 17.145588394945516 2 0 -1
2765 368 10 -0.66 8.580635490759924 0.803448469520639 16.66480959656652 2 3 1
2766 368 5 0.43 8.201430897360902 1.0622601111679055 15.814068132619111 2 3 1
5184 688 2 0.42 7.601355897232878 7.42917961640634 13.492829033126215 -1 0 1
2789 371 1 0.09 1.8080512038360208 7.87647842710666 18.118763081717002 0 0 -1
5150 684 4 -0.65 0.8073600813681461 8.910234985735412 14.057876995191437 1 0 2
4299 571 1 0.09 2.094754315661481 5.060020154116226 15.257365852492772 2 0 -1
2770 368 7 0.09 6.248665442416518 1.5519868714103382 17.365700786226387 2 3 1
4297 571 3 -0.04 1.3949996537814568 4.955315403796611 16.10349780042097 2 0 -1
4300 571 1 0.09 0.4773847575545427 4.495494270334504 15.74824902442312 2 0 -1
2767 368 6 0.09 8.331279311224543 2.9116333190953054 16.787277187213554 2 3 1
4302 571 2 0.42 1.5459068806646932 3.4620655230403155 17.46182803939809 2 0 -1
5154 684 2 0.42 1.0445022120889038 8.861306228854971 15.00830288204277 1 0 2
5278 700 1 0.09 8.648693718657471 2.9981908503548578 13.690754315908185 1 2 -1
3188 424 10 -0.66 0.39890036540406115 1.7732095219644866 16.973781555639682 1 -2 -1
4338 576 1 0.09 4.936993710961049 6.374721305422039 18.205604707155878 0 0 1
5277 700 1 0.09 6.8837272882994816 3.401564448813338 14.173473192453992 1 2 -1
970 127 7 0.09 2.97234794327572 1.8877682592930651 13.178956989383993 1 0 1
5151 684 1 0.09 -0.42037718691061743 7.14911952117164 14.07340676290705 1 0 2
4340 576 1 0.09 4.696752386911261 5.193451066019969 16.934244020004847 0 0 1
4130 549 7 0.09 4.856921505066 5.769446111350572 13.06457735245589 0 0 0
2772 368 7 0.09 6.910748074911678 1.114691232974718 18.921503707580477 2 3 1
2769 368 9 -0.27 7.010976351885278 1.8668833943282324 18.066860652778445 2 3 1
972 127 7 0.09 2.3689805014556757 0.2301141302915406 13.662876851800737 1 0 1
967 127 6 0.09 4.380429838476261 2.167021922790824 15.073084520694819 1 0 1
964 127 8 0.05 4.015053826324747 1.0962434661003666 14.925817262146161 1 0 1
2785 371 3 -0.04 1.231244335395867 8.69590602194435 17.69975189231098 0 0 -1
4336 576 3 -0.04 5.060954547062211 6.1936251046758635 17.11618835281899 0 0 1
1049 137 1 0.09 4.512214709530925 -0.041218714381530824 24.207332837690533 0 -1 0
5153 684 1 0.09 1.2327989905342374 6.902756139712008 13.420263995597733 1 0 2
4129 549 7 0.09 3.175808835185209 5.097927655380631 12.95349694233727 0 0 0
3194 424 7 0.09 0.43416294282700807 3.0280220943416607 19.28738861657695 1 -2 -1
3189 424 5 0.43 -0.06491329519411165 2.5092057562656693 16.549771011901985 1 -2 -1
1599 212 5 0.43 1.673777715999516 9.085560265853948 23.02364473162067 -2 2 -1
968 127 6 0.09 3.7836849433543502 0.6380412755289255 15.926236925188924 1 0 1
5009 665 6 0.09 1.5401727355701231 5.222571761072962 19.786423405975608 1 2 1
5007 665 5 0.43 3.3490573803641817 4.6636987802639345 18.633625193902503 1 2 1
3190 424 6 0.09 -0.34856008241685854 0.3397715956671735 18.142460562851312 1 -2 -1
3195 424 7 0.09 1.2239884449250156 1.5125483700183782 19.739485342786 1 -2 -1
4533 600 1 0.09 5.319409916990076 7.476815635652445 24.460362911546415 1 -1 1
965 127 10 -0.66 5.08410257274234 0.4001841416893943 14.265762185543055 1 0 1
3192 424 9 -0.27 0.291044762889053 1.947170192974093 19.448022273152684 1 -2 -1
2787 371 1 0.09 0.9826238639414246 9.453216344220086 18.4143857451825 0 0 -1
2786 371 4 -0.65 1.917270988453771 9.28116573008283 16.580978240643322 0 0 -1
2788 371 1 0.09 0.2322144075776007 8.286638405770244 17.367888174552686 0 0 -1
2150 286 6 0.09 6.778060842242347 8.402323523024956 20.579553190997668 1 0 -1
1362 180 1 0.09 9.369619572888922 4.540188537632147 22.01542670880158 -2 0 -1
740 96 7 0.09 3.2563479514942704 5.013519800643765 25.032433761783707 -1 1 0
738 96 9 -0.27 2.924169785895788 4.207387794804276 24.375864669204333 -1 1 0
1045 137 3 -0.04 5.131504841202472 0.6401921551950773 24.913195151503096 0 -1 0
4479 594 5 0.43 0.023557006889589283 8.806013349031932 20.796774770721736 0 -1 -2
1048 137 1 0.09 5.027493104297778 1.6914122229623552 24.551082498964497 0 -1 0
2771 368 7 0.09 6.566691409097833 2.8200458693310937 18.461918920233888 2 3 1
5006 665 10 -0.66 3.531709537150821 4.598564214110182 19.62070455241885 1 2 1
2025 270 5 0.43 8.876792837801434 2.463636111311745 24.613804046481718 -2 2 0
4534 600 1 0.09 6.989601234925084 7.529135577218906 24.620061198715135 1 -1 1
736 96 6 0.09 1.3376697096180343 2.8497711268139545 23.766775396442963 -1 1 0
735 96 5 0.43 1.2048493918052245 5.682165104166601 23.82833732285602 -1 1 0
1050 137 2 0.42 7.136630958565676 0.7588940818715281 25.305934327514617 0 -1 0
1363 180 1 0.09 8.702614594717668 2.93364326233377 22.60681732298849 -2 0 -1
555 73 1 0.09 2.7488442470093335 8.388737039602173 24.657036755850072 -1 0 0
5012 665 7 0.09 3.127786618554766 7.105025750410583 20.308711085577734 1 2 1
2024 270 10 -0.66 8.406066746243308 2.0809328499830686 25.39063865455663 -2 2 0
2149 286 6 0.09 5.82498294849253 7.047219584553488 19.856888877799797 1 0 -1
1046 137 4 -0.65 6.473788145321726 0.22689223052405227 24.7930365162015 0 -1 0
2147 286 10 -0.66 7.835741892060376 6.903816602836477 19.572229542893346 1 0 -1
2146 286 8 0.05 6.732980055255088 7.356481018671334 20.384326036438704 1 0 -1
2489 331 4 -0.65 5.027816571875323 2.1140956219804323 20.350041616507863 0 0 -2
553 73 3 -0.04 1.9264289315949372 7.985647802346698 25.272677735486532 -1 0 0
2490 331 1 0.09 5.513680007109785 1.6094393360574828 22.33776893030425 0 0 -2
5182 688 1 0.09 4.90489074821542 8.148649366869908 14.084433572443292 -1 0 1
1360 180 3 -0.04 9.01377810440706 3.941607846491074 22.905077373782238 -2 0 -1
5008 665 6 0.09 2.4042777690427792 4.2334546558420305 21.110444551831282 1 2 1
733 96 8 0.05 1.454001684249645 3.8403636580583402 24.279640501433036 -1 1 0
4516 598 6 0.09 7.475220200010593 0.6427091226056367 21.727460496766057 0 -1 0
1364 180 1 0.09 8.139558650722597 4.511601745185685 23.369067417787882 -2 0 -1
739 96 7 0.09 3.4355899090718625 3.2571592030981558 24.66929808321463 -1 1 0
2153 286 7 0.09 7.687758887720728 6.612138713259281 22.097557211066682 1 0 -1
2152 286 7 0.09 5.798015681383008 6.656003411507813 22.317574003501296 1 0 -1
554 73 4 -0.65 0.8737928127752868 7.7329250099275075 24.378863298980725 -1 0 0
2488 331 3 -0.04 4.585966108408123 1.616380812811651 21.66214893086461 0 0 -2
734 96 10 -0.66 0.8141411215425132 4.857889162631046 23.4911080561974 -1 1 0
737 96 6 0.09 0.9977013026418924 3.7293326785605023 25.27789839817233 -1 1 0
5013 665 7 0.09 3.7836128325048044 6.167405739577447 21.664223497271266 1 2 1
2154 286 7 0.09 6.571715357985059 5.467393701019958 21.31881476459334 1 0 -1
558 73 2 0.42 0.06449940330220905 8.060982376767164 24.817097349274704 -1 0 0
2492 331 1 0.09 4.143113653272713 0.6181417332470777 21.63554631585243 0 0 -2
2493 331 2 0.42 4.389557693356033 2.830883666959154 20.141485906208903 0 0 -2
5005 665 8 0.05 2.4791979199314063 5.064193986361633 20.37627636431453 1 2 1
5183 688 1 0.09 6.320359026585544 9.315894716529394 13.846515705065393 -1 0 1
2151 286 9 -0.27 6.704711594258645 6.526067085473964 21.608164918867256 1 0 -1
2491 331 1 0.09 3.8791749350584377 2.31279165744113 22.068995158960472 0 0 -2
5010 665 9 -0.27 2.8687108123055105 6.3091608721095005 21.04360910288966 1 2 1
5011 665 7 0.09 1.9619158973101238 6.651943414291309 21.723354760664254 1 2 1
741 96 7 0.09 3.222217444090838 4.425047283379596 23.312430892269234 -1 1 0
2768 368 6 0.09 9.095818989906086 2.1349493420527 18.30834072914538 2 3 1
4535 600 1 0.09 5.926316741545792 5.966297709913722 24.82658219517311 1 -1 1
4531 600 3 -0.04 6.10881756110393 7.036208009752067 25.015772818710435 1 -1 1
3187 424 8 0.05 -0.3430575920958057 1.4080471648963642 18.167124867040982 1 -2 -1
515 68 7 0.09 9.298394199627086 6.261886100894168 16.311851683224727 -1 0 -1
1437 190 2 0.42 9.131517156785332 7.303176779768684 20.799471029291027 -1 2 0
3193 424 7 0.09 -0.33838874057045754 1.7968945944768984 20.32140607267483 1 -2 -1
1598 212 10 -0.66 1.3302741369107571 9.489826014679188 22.19907473061324 -2 2 -1
4652 616 7 0.09 1.2759509468940902 2.4139917455047586 28.301851796226074 1 -1 1
4645 616 8 0.05 2.623064770196587 2.233727963129183 30.021022836071335 1 -1 1
4646 616 10 -0.66 1.6515969035989442 1.3826606491045295 30.66050187329811 1 -1 1
4650 616 9 -0.27 1.8599921980058927 3.089829070584501 29.004568396834358 1 -1 1
4653 616 7 0.09 2.5697689181031196 3.6946817382301416 28.400631493976725 1 -1 1
4648 616 6 0.09 3.425046968704721 1.651243033614797 29.51155359148047 1 -1 1
716 94 10 -0.66 7.296768143641893 6.071165702727719 28.463156337255832 -2 2 1
4651 616 7 0.09 1.1864006169441381 3.7402363929903935 29.598676942544884 1 -1 1
715 94 8 0.05 6.515390568258406 5.820656180149301 29.604126332847805 -2 2 1
720 94 9 -0.27 6.569259775715278 6.993058294093971 30.623701233140633 -2 2 1
719 94 6 0.09 5.46654306384647 5.690733637099558 29.273645651497024 -2 2 1
4536 600 2 0.42 6.571456379005189 6.991510313095302 26.982002095343077 1 -1 1
4532 600 4 -0.65 5.929192775093736 7.418915138600107 26.359051444004024 1 -1 1
657 86 1 0.09 9.027124127297073 9.152083473403119 29.27030641953561 1 0 0
718 94 6 0.09 6.849829471953585 4.8615833217222635 29.989443097632446 -2 2 1
557 73 1 0.09 2.3039650747559786 7.109521560121924 25.895883878549352 -1 0 0
717 94 5 0.43 8.236292758001083 5.95006737472785 28.6912892587677 -2 2 1
4647 616 5 0.43 1.7719274810592944 1.6877093565886627 31.58032359642004 1 -1 1
4649 616 6 0.09 3.0044485286911877 2.8241267121561133 30.87963560447965 1 -1 1
4154 553 10 -0.66 0.25355102893373527 7.453707961167831 31.633402110305575 0 -1 -2
721 94 7 0.09 6.342819695823296 7.974471237486592 30.221266817879012 -2 2 1
5129 681 6 0.09 9.406028690912885 1.4062854000845466 33.216309781255106 1 2 0
4153 553 8 0.05 0.320513127280733 8.182426922731112 30.405024090571946 0 -1 -2
722 94 7 0.09 7.5087043486602045 7.142708288937656 31.19627287527991 -2 2 1
4155 553 5 0.43 1.1130457332542765 7.511759970583903 32.124082944964236 0 -1 -2
2030 270 7 0.09 7.026126072371471 3.2682582598867285 28.173222678111365 -2 2 0
3678 489 9 -0.27 0.39783923091884044 4.2675825314601745 34.68713848120715 0 -1 -2
2023 270 8 0.05 8.091598966930343 3.1535995095979206 26.289821418833643 -2 2 0
2028 270 9 -0.27 7.5345098289531585 2.500852218783297 27.518783116744252 -2 2 0
5325 706 5 0.43 0.47275783028889395 0.43780304775384393 29.637449369726056 2 2 -1
4161 553 7 0.09 1.0526731631144195 7.96229932594872 28.453516422779312 0 -1 -2
5324 706 10 -0.66 -0.12208798413539163 0.0023680930769845454 28.917113622581308 2 2 -1
4158 553 9 -0.27 1.1793271508109406 7.418625159328482 29.442548477211286 0 -1 -2
3417 453 2 0.42 3.1253955708725467 5.827047582319671 37.928836886895525 1 -3 1
2026 270 6 0.09 7.276020579666116 3.825600043514859 25.908767252845497 -2 2 0
4159 553 7 0.09 0.9264867500835465 6.345904637538543 29.3335367081484 0 -1 -2
1777 236 6 0.09 5.115237032747163 0.5506198753107966 32.007853954974266 3 2 0
2029 270 7 0.09 6.785002009560878 1.7352771152567987 27.17610045435919 -2 2 0
2031 270 7 0.09 8.223321546309327 1.8896517923797491 28.081972625689232 -2 2 0
4267 567 6 0.09 2.8650759455105623 8.716292132565092 37.12700769084903 1 3 1
1780 236 7 0.09 6.168769373548208 2.7797588996105356 32.54285827736911 3 2 0
4160 553 7 0.09 2.2372574105807623 7.412428612618876 29.72092035308084 0 -1 -2
4264 567 8 0.05 2.911585542230801 8.476928774429322 36.00761142072968 1 3 1
3993 532 1 0.09 2.95414962501498 5.088860505291249 32.68429565823492 0 -2 -1
2311 306 8 0.05 7.5173945459058125 2.314315213692915 37.26198296928926 1 1 1
2027 270 6 0.09 9.060577911807028 3.7708101448782294 26.419687978656246 -2 2 0
723 94 7 0.09 5.77924101064232 6.769453256808549 31.37921604142761 -2 2 1
4156 553 6 0.09 0.7177354693491051 9.206415195178382 30.7352541338021 0 -1 -2
1716 228 1 0.09 8.435274125753024 -0.006146016988013758 26.662587887980745 1 0 -1
5126 681 10 -0.66 9.178054105113986 3.0139806864583285 34.435799151418124 1 2 0
2317 306 7 0.09 7.032181881227036 0.8633990170029191 35.65105020897601 1 1 1
3677 489 6 0.09 -0.03580623311755615 3.495360016907474 32.58829531906785 0 -1 -2
5125 681 8 0.05 9.297790839470418 2.490811781102577 33.142273913070646 1 2 0
3003 400 5 0.43 0.4769791701496755 6.799809720872955 37.89444912727791 1 2 0
3413 453 4 -0.65 4.117993585712218 5.814195432056459 37.728938048158206 1 -3 1
3412 453 3 -0.04 4.334337281598659 4.757502076358461 36.86332126328057 1 -3 1
5422 718 1 0.09 1.9036485360138453 1.4748976505970777 36.96302136850318 3 2 -1
5423 718 1 0.09 2.407200407668162 0.20257201392200752 35.884910897685096 3 2 -1
2244 297 9 -0.27 9.394238710343064 9.078613035054564 32.793891805794594 1 1 1
5419 718 3 -0.04 2.7938493329527465 1.0760832674307985 36.46200355355784 3 2 -1
2314 306 6 0.09 8.617072981675271 2.2873825652555593 37.07107104474512 1 1 1
1047 137 1 0.09 4.74494814099229 0.6037824464154061 25.937414880932543 0 -1 0
1781 236 7 0.09 5.593011278138715 2.531913748080516 34.24298867300773 3 2 0
5421 718 1 0.09 3.577919225794579 0.8327509504916764 37.22839314604906 3 2 -1
5420 718 4 -0.65 3.2978028500914567 1.8700414351340284 35.381065906250505 3 2 -1
3676 489 6 0.09 -0.3777154714319494 2.4190364595355014 34.00299574810716 0 -1 -2
810 106 1 0.09 6.562786822655776 9.140937104681122 37.12670700922923 1 -1 0
3992 532 4 -0.65 2.665564503892883 7.178887822134709 32.9902075556417 0 -2 -1
3680 489 7 0.09 0.981975684320503 5.194854428526977 34.47523827048131 0 -1 -2
4268 567 6 0.09 2.041061239780723 7.831175794903983 35.626062834927744 1 3 1
3996 532 2 0.42 3.189839759832948 7.575214588870247 33.73783023836963 0 -2 -1
1779 236 9 -0.27 5.423468550460329 2.2529613659149277 33.19645901762389 3 2 0
3415 453 1 0.09 5.147321832712318 5.017886901648646 36.11765775715432 1 -3 1
3674 489 10 -0.66 1.659414186035777 2.7616023671350254 33.39855923794047 0 -1 -2
2319 306 7 0.09 7.3110583947315915 0.21732542969372215 37.38123129942158 1 1 1
1624 215 6 0.09 9.171375909811413 4.992614479657178 38.28550432177831 1 -1 1
2315 306 6 0.09 7.076397024111524 3.164861984452756 36.667935209756784 1 1 1
4265 567 10 -0.66 4.114410949365365 7.777132064002397 35.55084561860935 1 3 1
3414 453 1 0.09 3.438674448014285 4.61845494537687 36.29851096560883 1 -3 1
3681 489 7 0.09 0.5325529751427507 3.9418164728623895 35.68155032410445 0 -1 -2
1782 236 7 0.09 4.492245373984267 2.6295202885360465 32.813496054621055 3 2 0
3416 453 1 0.09 4.464645228114268 3.8503090122365693 37.366284391061264 1 -3 1
3991 532 3 -0.04 3.4275578261426034 6.045992693978512 32.4754802976755 0 -2 -1
1775 236 10 -0.66 4.72875224735628 0.08195291190304438 33.904421828775895 3 2 0
2245 297 7 0.09 8.363891111139985 9.475832348883442 32.92003646670351 1 1 1
5128 681 6 0.09 8.354323870287379 2.7289696480876837 32.588931620831445 1 2 0
2318 306 7 0.09 5.8044503313287406 1.0814954000264803 36.90107666253845 1 1 1
3994 532 1 0.09 3.609793925863033 6.158332420800042 31.344840807331284 0 -2 -1
5424 718 2 0.42 3.973306815314527 1.2977140700041927 34.91896030966884 3 2 -1
3995 532 1 0.09 4.463525512807185 6.100340183940163 32.861534715032406 0 -2 -1
3673 489 8 0.05 0.309128093043447 3.1889389612080867 33.62412691762952 0 -1 -2
1778 236 6 0.09 6.569120328263229 0.3029670221727938 32.995984800650795 3 2 0
2316 306 9 -0.27 6.913056161782103 1.0367788792059496 36.75805023299575 1 1 1
556 73 1 0.09 1.6290459036979725 8.799420653917307 25.950115223477194 -1 0 0
3675 489 5 0.43 2.1425226683245304 2.6832252120415436 34.25844501000205 0 -1 -2
3002 400 10 -0.66 1.0389934297838976 5.988634529480028 37.98572444128234 1 2 0
4266 567 5 0.43 3.9851523760749172 6.910110293552919 36.01975533734091 1 3 1
1774 236 8 0.05 5.540599325459415 0.7126990771049452 32.98279807775092 3 2 0
5127 681 5 0.43 9.410696953292016 2.291293175432209 35.01012272994955 1 2 0
3007 400 7 0.09 0.6178500873622774 3.4912477351406066 38.5271527680517 1 2 0
918 120 5 0.43 3.56764601314177 18.130240549136648 3.651034491831492 -2 -2 1
822 108 5 0.43 2.647700129014638 16.33701762046374 5.076670263115355 0 1 0
821 108 10 -0.66 3.4559213179508035 16.870744686934206 5.037062486691296 0 1 0
5474 727 4 -0.65 0.9980337420609773 15.57898891134226 5.649394620885654 -2 0 2
1317 174 1 0.09 7.296585669467057 11.23191189769632 4.528909883575353 0 0 -1
917 120 10 -0.66 3.5736195926016467 18.77576870989875 2.9370251406533523 -2 -2 1
820 108 8 0.05 4.399359695086962 15.902243922195456 5.282702697222586 0 1 0
825 108 9 -0.27 5.76288803620612 16.520934485812322 5.212245798959402 0 1 0
823 108 6 0.09 4.254860273397406 15.032919772658 4.493405297395786 0 1 0
5232 694 2 0.42 -0.18914654079759696 10.579442705804865 7.302575192221709 0 2 -2
4332 575 9 -0.27 3.426956489624148 11.196268042814632 1.0767348788559281 1 0 -2
1315 174 3 -0.04 7.667126513949434 12.02967343247088 3.8619668935101683 0 0 -1
5477 727 1 0.09 0.9804967277521681 13.590918745575246 6.392000840904437 -2 0 2
1319 174 1 0.09 8.744365763091793 12.144905682772626 4.153834824434858 0 0 -1
5233 695 3 -0.04 0.24091098495768348 18.924788441279215 4.5410450806245075 2 -1 0
5473 727 3 -0.04 0.7939715121831006 14.146673316030876 5.404511439606347 -2 0 2
4801 636 1 0.09 5.160358626207833 14.229684851535788 0.05803227804745095 0 0 0
1318 174 1 0.09 7.686422902710996 11.754653910418945 2.823159613801991 0 0 -1
919 120 6 0.09 4.284839220464437 17.329805053116697 1.5892482178197187 -2 -2 1
561 74 5 0.43 2.0779135741496804 16.909050875795604 9.517629505397823 -1 -1 -1
4329 575 5 0.43 1.2444893929502072 12.479009498170429 0.504290281960785 1 0 -2
1320 174 2 0.42 7.646566603298448 13.929162212620664 3.8254277250184976 0 0 -1
1316 174 4 -0.65 6.998940920984185 13.266911088549836 4.1006325035531095 0 0 -1
2911 388 1 0.09 1.5810319137004072 14.565668288016537 2.489782069053033 1 0 0
2909 388 4 -0.65 1.8184611159994768 15.529927999795062 0.8194705901510085 1 0 0
341 44 10 -0.66 9.097172186772031 15.601274490371623 3.1304066607704275 0 0 -1
5236 695 1 0.09 1.3134892778987366 18.502934721486458 4.549437226345268 2 -1 0
826 108 7 0.09 6.052144461384482 16.49734581497508 4.10127209679781 0 1 0
342 44 5 0.43 9.11868574321995 15.640660313582238 2.1962223015570594 0 0 -1