LAMMPS data file via write_data, version 29 Aug 2024, timestep = 7210000, units = real

5067 atoms
10 atom types
4338 bonds
8 bond types
6489 angles
10 angle types
4728 dihedrals
7 dihedral types

-0.27981685211324603 39.0818768521216 xlo xhi
0.06453357124190617 38.672576428746844 ylo yhi
0.16428052266410376 38.27393947734044 zlo zhi

Masses

1 1.008
2 1.008
3 12.011
4 15.999
5 1.008
6 1.008
7 1.008
8 12.011
9 12.011
10 15.999

Pair Coeffs # lj/charmmfsw/coul/long

1 0.024 2.38761 0.024 2.38761
2 0.046 0.400014 0.046 0.400014
3 0.078 3.65268 0.01 3.38542
4 0.1921 3.14487 0.1921 3.14487
5 0.046 0.400014 0.046 0.400014
6 0.035 2.38761 0.035 2.38761
7 0.024 2.38761 0.024 2.38761
8 0.056 3.58141 0.01 3.38542
9 0.078 3.6527 0.01 3.38542
10 0.1921 3.1449 0.1921 3.1449

Bond Coeffs # harmonic

1 322 1.111
2 428 1.42
3 545 0.96
4 222.5 1.528
5 309 1.111
6 322 1.111
7 428 1.42
8 545 0.96

Angle Coeffs # charmm

1 57.5 106 0 0
2 35.5 108.4 5.4 1.802
3 45.9 108.89 0 0
4 50 106 0 0
5 34.6 110.1 22.53 2.179
6 35.5 109 5.4 1.802
7 34.6 110.1 22.53 2.179
8 35.5 108.4 5.4 1.802
9 75.7 110.1 0 0
10 45.9 108.89 0 0

Dihedral Coeffs # charmmfsw

1 0.18 3 0 1
2 0.24 3 0 1
3 0.14 2 0 0
4 1.13 1 0 0
5 0.16 3 0 1
6 0.18 3 0 1
7 0.16 3 0 1

Atoms # full

3838 525 3 -0.04 6.625114536212924 2.210882704003985 2.457912284885187 2 2 -2
893 118 10 -0.66 2.686918818893522 6.27045217966871 0.9559450677907685 2 -2 0
4331 607 4 -0.65 6.8700106768541405 3.4493473410054905 12.783798077422805 2 2 -1
2776 370 7 0.09 4.7829426063718135 5.597916079125004 5.109423330137598 2 1 -1
2778 370 7 0.09 4.58769007349434 5.136375665876348 3.4242643792187293 2 1 -1
2777 370 7 0.09 4.222568761135313 6.886867252721287 3.9408592129907594 2 1 -1
1982 262 4 -0.65 2.956033414851605 0.35791112349019677 4.097412333195518 2 -2 0
2770 370 8 0.05 2.714609135389822 5.489369839328978 4.422217569718513 2 1 -1
1110 146 2 0.42 4.352261096608732 3.0843123091011355 1.4566870767329647 1 3 1
3842 525 1 0.09 6.716202549243023 2.64633108422752 3.4344666737737843 2 2 -2
2775 370 9 -0.27 4.218382217928209 5.8146981012688475 4.221835260676155 2 1 -1
2774 370 6 0.09 2.496455431159289 4.470334933206646 4.790666573801102 2 1 -1
2772 370 5 0.43 1.3352567661438084 6.56183433016252 5.3443674851576635 2 1 -1
2771 370 10 -0.66 2.2889044974139763 6.417203512471367 5.401432042058841 2 1 -1
1530 200 7 0.09 7.80985468931677 7.887008397799191 1.7976120608138806 -1 2 -2
4621 655 1 0.09 0.2456364099201963 7.229472890913361 3.0122623604504963 2 0 0
2773 370 6 0.09 2.161441081370679 5.592486536324779 3.489791971879456 2 1 -1
3237 431 1 0.09 7.6370586708489805 2.5804429662856094 10.345501272575548 0 -2 0
658 86 3 -0.04 4.5924967385149005 2.4160396094674095 7.237481201186261 -2 2 -1
895 118 6 0.09 0.9501416952505441 5.230126410474454 0.4971873848806455 2 -2 0
633 83 5 0.43 9.278093998418097 3.0883451459805364 0.5343370946362884 2 0 -1
1527 200 9 -0.27 7.505815425818219 7.31865279484275 0.8997443414112728 -1 2 -2
5057 728 4 -0.65 8.366460394590762 8.862520985359906 4.523794860361255 1 2 2
894 118 5 0.43 3.2124190465436686 5.46340606575371 1.057854102809702 2 -2 0
3840 525 1 0.09 7.496079115050495 1.504007140202123 2.3826093051495376 2 2 -2
1529 200 7 0.09 8.132656587896935 6.381716218103899 0.7823589130727833 -1 2 -2
3841 525 1 0.09 6.708984854378094 3.001038104857965 1.6777754293801848 2 2 -2
3823 522 1 0.09 2.442526771701138 9.34321425253435 2.6320314143901378 -1 1 1
1981 262 3 -0.04 2.245266857410264 1.262579570571321 3.2948488772195095 2 -2 0
3839 525 4 -0.65 5.369406757067187 1.557314596881591 2.3197837788282074 2 2 -2
661 86 1 0.09 4.6271013734680135 2.864655378315068 8.199672212329705 -2 2 -1
662 86 1 0.09 5.5433812503502455 1.8029152859100872 7.061062603628151 -2 2 -1
663 86 2 0.42 3.5489663478376836 1.4087677127169473 6.016522527006782 -2 2 -1
3235 431 3 -0.04 7.243568590720991 2.0592903323360012 9.447222450777053 0 -2 0
3238 431 1 0.09 6.400855705629771 2.613936330790519 9.097263528843923 0 -2 0
1983 262 1 0.09 1.1894167867030638 0.9584756938690202 3.2946998060260917 2 -2 0
2568 343 5 0.43 3.5121618134233348 7.29927572431194 7.006165639039306 -1 -3 1
1523 200 10 -0.66 5.240863692843022 8.07750620443864 1.1249909816583004 -1 2 -2
1106 146 4 -0.65 3.674309724372839 3.5249440940994514 0.8927500401979924 1 3 1
616 80 7 0.09 1.0058019710521295 4.500743807088249 10.755491494319172 0 0 0
4149 576 2 0.42 5.706056740351469 9.486130247092886 2.4006367473773964 -1 -1 -1
4333 607 1 0.09 5.366147136939508 2.1358277609711487 12.326928348958585 2 2 -1
1522 200 8 0.05 6.053006210909616 6.924933110218359 1.1266359578599179 -1 2 -2
4055 561 4 -0.65 0.760555125239581 2.6428756206511994 5.644847207509965 1 0 0
2407 319 6 0.09 9.281442013967498 6.294909262860347 3.016573087721841 1 2 1
659 86 4 -0.65 3.39989503735999 1.6866249084110643 6.952789962171842 -2 2 -1
660 86 1 0.09 4.705584980696772 3.2569853994869034 6.525036387294474 -2 2 -1
4054 561 3 -0.04 -0.014241474837841828 1.5912454790924497 6.173804771242715 1 0 0
3843 525 2 0.42 5.508171894090345 0.8779619944488245 1.6053951298528055 2 2 -2
3093 411 7 0.09 8.407566919786213 0.9382404930446764 12.501728504457963 0 -1 0
1525 200 6 0.09 5.867038349886537 6.353202582542674 0.22019560358496848 -1 2 -2
1722 225 7 0.09 8.724778669808652 9.457572715080428 8.153127672396558 1 2 2
2405 319 10 -0.66 8.614634294110267 6.137234731066139 5.040096720149653 1 2 1
4140 575 1 0.09 6.475139701854622 0.2307810517459033 4.888537097620875 5 0 1
1984 262 1 0.09 2.303771655665388 2.275829579757111 3.66318291112002 2 -2 0
2406 319 5 0.43 8.558611078663825 7.083146256103593 4.93458672707591 1 2 1
3764 512 1 0.09 8.106225213701677 6.4275065638909865 8.146293188763252 2 2 2
1526 200 6 0.09 6.019186396001281 6.304490161963097 2.1150873361080986 -1 2 -2
2570 343 6 0.09 2.098670387062379 6.8272604552056295 8.496123425201862 -1 -3 1
2572 343 7 0.09 3.3775766041375874 9.128354496213639 10.02871366519185 -1 -3 1
2567 343 10 -0.66 3.7054380749539697 7.916547334401155 7.750204961336793 -1 -3 1
617 80 7 0.09 1.7004726850130292 3.357344577107011 12.025478611024468 0 0 0
500 65 4 -0.65 9.543345762604465 0.645466200530625 3.621597858264678 0 0 0
1717 225 6 0.09 6.401364308546583 8.51036073875753 7.473118428070276 1 2 2
88 12 6 0.09 0.5959826070442089 1.6110351070638647 0.6563583406479105 1 -1 -2
2408 319 6 0.09 8.928659330572703 4.67838135990668 3.608535405790799 1 2 1
3762 512 1 0.09 6.492975664583472 5.652857605213487 8.05766812278221 2 2 2
3240 431 2 0.42 8.294697710499713 2.9042481067178456 7.885492894069215 0 -2 0
3236 431 4 -0.65 8.177665231990261 1.970721769261716 8.348961264881495 0 -2 0
2573 343 7 0.09 1.806058589841125 8.368610656935655 10.588965486163184 -1 -3 1
3761 512 4 -0.65 8.155222676629407 4.57044956750164 7.2953701500966375 2 2 2
4059 561 2 0.42 1.4911858787089156 2.7312419852767875 6.252379987158147 1 0 0
2571 343 9 -0.27 2.4559469210425426 8.63760813857434 9.71508937842838 -1 -3 1
3760 512 3 -0.04 7.529245957422193 5.479238852046139 8.20417115659212 2 2 2
4058 561 1 0.09 0.7117224774166656 0.7890720900250903 6.434544240694273 1 0 0
502 65 1 0.09 9.268923729111814 1.1954984706282372 5.724652405497993 0 0 0
615 80 9 -0.27 1.0223201793789107 3.453317532674535 11.144290665282906 0 0 0
1718 225 6 0.09 6.645287010794686 8.435120726849906 9.321365047810085 1 2 2
3765 512 2 0.42 8.313483399984149 5.039198915409606 6.471659758321955 2 2 2
1714 225 8 0.05 6.531005138110177 9.103704317716206 8.409772636724467 1 2 2
3239 431 1 0.09 6.933565891733835 1.110709369665365 9.7807893735811 0 -2 0
899 118 7 0.09 0.4727854468686713 7.665750802261472 0.8326083980920622 2 -2 0
2566 343 8 0.05 2.944904043407384 7.438114890856173 8.869172561524238 -1 -3 1
618 80 7 0.09 -0.005878246548227661 3.2874699620988337 11.54142847370538 0 0 0
1524 200 5 0.43 4.337501470901022 7.758736582457294 0.9700742767901691 -1 2 -2
613 80 6 0.09 0.49039377994223354 2.128466677922794 9.588257764667196 0 0 0
2574 343 7 0.09 1.9133821422099464 9.39274951795048 9.157403660427775 -1 -3 1
3763 512 1 0.09 7.715971282439143 5.178341943810311 9.270832527709516 2 2 2
612 80 5 0.43 1.9787506351431792 0.5934436958650227 10.017192868231804 0 0 0
610 80 8 0.05 1.4219778826494964 2.399334689621478 10.165388404274234 0 0 0
611 80 10 -0.66 1.8912971797775349 1.2550827427525164 10.745679883609174 0 0 0
614 80 6 0.09 2.1351591816117717 2.7884084751616194 9.409045861247906 0 0 0
2569 343 6 0.09 3.492361990323285 6.741505328310063 9.537080333198542 -1 -3 1
5061 728 2 0.42 7.882071899186238 9.27764927180671 3.7734808129871045 1 2 2
4332 607 1 0.09 4.759368856835826 3.747698426182468 12.690053110264516 2 2 -1
229 30 1 0.09 6.000024830303462 9.25513362130206 12.467633001553034 0 2 -2
1985 262 1 0.09 2.546618431607629 1.168736910553645 2.206697496969242 2 -2 0
1716 225 5 0.43 4.594896200532206 9.323014675493877 8.38342692867821 1 2 2
2404 319 8 0.05 9.433293515316034 5.670231790664552 3.9299864942023093 1 2 1
3536 474 1 0.09 0.29476016735488597 9.632405653923152 5.292992839482138 -2 0 1
867 114 5 0.43 2.5633088196971845 0.11096385556968265 7.769629767638481 0 0 0
3825 522 2 0.42 0.7263258022009345 9.7122609228238 0.987101726255617 -1 1 1
3165 421 5 0.43 3.0512790977817086 8.225103572943986 16.744581246627888 2 1 2
2763 369 5 0.43 7.731425269249856 4.913225594952965 16.339598647403502 1 0 0
2138 283 4 -0.65 5.098001878252555 2.518030119251248 16.29509611091494 -1 -2 -2
1741 228 3 -0.04 2.911115199216663 1.2551198874615355 14.375265275228477 0 1 1
2142 283 2 0.42 4.520149775751975 1.8868150142757403 15.855265428409744 -1 -2 -2
2765 369 6 0.09 7.849944740060952 6.1056047027802185 14.01960405424954 1 0 0
2764 369 6 0.09 6.414994045127034 5.206955420013444 14.776411133055557 1 0 0
2761 369 8 0.05 7.094699916777166 6.01290357416703 14.86626141761098 1 0 0
4743 675 2 0.42 6.825853083609558 2.6814746697438356 16.12828468009489 0 1 0
1745 228 1 0.09 1.998328977580357 0.7127968066807461 14.756311477490607 0 1 1
2762 369 10 -0.66 7.518958339548762 5.853026631676109 16.148574458000702 1 0 0
3901 535 1 0.09 1.2525134933111268 3.7022340058103373 15.189678225084059 1 -1 -1
2141 283 1 0.09 5.10266349074891 3.3036337578303763 18.248392353240273 -1 -2 -2
2137 283 3 -0.04 4.386828427507972 2.965928905810712 17.420989099174726 -1 -2 -2
3163 421 8 0.05 2.2807919929543545 7.973856580801336 18.50337204519871 2 1 2
4739 675 4 -0.65 7.827153653838735 2.648955317046877 16.360286276969543 0 1 0
3899 535 4 -0.65 0.9682262042595156 5.608160645806233 15.886700673843885 1 -1 -1
3903 535 2 0.42 1.3059744396544155 6.393909280963147 15.42456824191556 1 -1 -1
1743 228 1 0.09 2.8785227982025132 2.305468813474634 14.82854237394689 0 1 1
3898 535 3 -0.04 0.7536414997253247 4.6830597704633 14.853123940267798 1 -1 -1
2274 300 2 0.42 8.176335930701507 2.5292666768472487 24.17341285539836 1 0 -1
4378 615 3 -0.04 3.0996733804583894 9.536924634306933 25.52521988861253 0 2 -1
428 56 6 0.09 7.744473331310916 7.230167715301456 18.616371628509288 0 -1 1
2271 300 1 0.09 5.792375832471039 1.679883877374165 22.868550069283042 1 0 -1
4738 675 3 -0.04 7.9993516911620866 2.6665546422421476 17.760913597025656 0 1 0
3785 516 4 -0.65 8.21385116498853 3.682395521490341 20.890754635397286 0 -1 -1
2768 369 7 0.09 5.631179458619754 7.331011682126389 15.820589935702715 1 0 0
424 56 8 0.05 8.60657933967784 7.901434866120541 18.45526520838602 0 -1 1
2139 283 1 0.09 3.749356135032107 3.8434704278760647 17.075116650111863 -1 -2 -2
2140 283 1 0.09 3.79156166182647 2.0501615746193425 17.689746487310348 -1 -2 -2
3164 421 10 -0.66 3.2270203492427045 7.644142078059761 17.462313768711006 2 1 2
4742 675 1 0.09 8.122418686008862 3.7360013823855724 18.076371756995552 0 1 0
1744 228 1 0.09 2.94654146621378 1.368765820576404 13.264991535609155 0 1 1
429 56 9 -0.27 8.23812406351189 9.346003489296704 18.506740205207734 0 -1 1
2767 369 7 0.09 6.909996167513152 8.144759035093632 14.784299802069366 1 0 0
1253 165 4 -0.65 1.9126069209218546 8.423855443071137 15.046130528064099 0 -2 0
2769 369 7 0.09 5.593974968751221 7.27124502451577 14.112934390401593 1 0 0
1742 228 4 -0.65 3.9542273592051096 0.4420654989212696 14.877121516053286 0 1 1
2766 369 9 -0.27 6.304266598441359 7.270362655987339 14.929093158740516 1 0 0
2031 268 2 0.42 1.3597248494085965 5.080599312290617 17.852207243261283 0 -2 1
4335 607 2 0.42 7.471105034976549 2.730345222616761 12.95584773302172 2 2 -1
426 56 5 0.43 8.790891946800986 6.8574804386560775 16.86735667676723 0 -1 1
3751 510 1 0.09 9.543762969098582 8.763356486891487 24.968111760137354 0 -2 1
3167 421 6 0.09 2.057851836983223 9.091727463831452 18.559815448759544 2 1 2
3166 421 6 0.09 1.409963391687026 7.289519796985966 18.32640133359579 2 1 2
4382 615 1 0.09 4.161451682189061 9.604361472272252 25.310453995279115 0 2 -1
2027 268 4 -0.65 0.8393917140912717 4.790347494223399 18.64689906415943 0 -2 1
3759 511 2 0.42 9.447519723597711 9.46260576694294 16.057386158938776 1 3 1
4740 675 1 0.09 7.158940573731064 2.1255800035980643 18.31550673615609 0 1 0
2028 268 1 0.09 1.219904451046178 2.9572712730144466 18.027183704231188 0 -2 1
2026 268 3 -0.04 0.3885825367406196 3.4987903577671284 18.534508934037284 0 -2 1
1021 134 1 0.09 1.4260367842848014 7.601365448575598 23.438762742201583 1 0 -1
3168 421 9 -0.27 2.7568515284364876 7.632343929354634 19.910855109308436 2 1 2
1022 134 1 0.09 0.31190475593927425 6.571199978095758 24.247777761118353 1 0 -1
3900 535 1 0.09 1.3000137115019936 4.945906598123719 13.942704463570886 1 -1 -1
3350 446 10 -0.66 9.270529685917504 1.7120680522851985 25.294040455890283 0 1 0
432 56 7 0.09 7.941900999264041 9.674731803687466 19.551961700904485 0 -1 1
1252 165 3 -0.04 2.9662239506882027 8.592160759895501 14.081925978618942 0 -2 0
3944 542 1 0.09 5.858725842238718 5.5434178390038955 19.368866503659287 -1 2 -3
2029 268 1 0.09 0.1887464452370881 3.0357256165513262 19.513128831691187 0 -2 1
4334 607 1 0.09 5.418374138553434 2.5679006448694404 14.014717279838914 2 2 -1
3378 449 5 0.43 3.4407857202089795 0.4056037218334061 20.210187045029514 1 1 2
3940 542 3 -0.04 5.197069782217057 5.203680165092625 20.163741843223768 -1 2 -3
3943 542 1 0.09 5.209722516671044 5.991763154069983 20.972983667203174 -1 2 -3
3169 421 7 0.09 2.494742958039069 6.574286400907021 20.231378677486774 2 1 2
3945 542 2 0.42 6.324190955807863 3.906818878345631 21.14377279887885 -1 2 -3
3786 516 1 0.09 8.805930605658586 5.296671603719458 22.022258733436463 0 -1 -1
1257 165 2 0.42 1.3271886424889157 9.203506464113724 14.985696506510783 0 -2 0
1018 134 3 -0.04 0.4707604442620278 7.071543564803937 23.32434033793989 1 0 -1
3428 456 1 0.09 7.979794809531045 0.41382874615878873 21.546967593440208 -2 1 -1
3171 421 7 0.09 3.8197874588996843 7.8707029375182245 19.881648280660052 2 1 2
270 35 1 0.09 2.8811510809319554 3.473915391555038 22.425465949393082 0 3 2
1256 165 1 0.09 2.7180568698413783 9.53438896703594 13.674610490201319 0 -2 0
268 35 3 -0.04 2.5190614496707573 2.7144980998873542 21.706416514926918 0 3 2
1020 134 1 0.09 0.463032030648477 6.297374906621174 22.470819847605505 1 0 -1
3784 516 3 -0.04 9.083986070769633 4.788863458756542 21.0357370524674 0 -1 -1
3756 511 1 0.09 8.862690572581876 8.573371170774685 13.632034365670819 1 3 1
2269 300 3 -0.04 6.265153422398802 2.035072790099237 23.820703602570948 1 0 -1
269 35 4 -0.65 3.626544197491138 1.9901960850656104 21.129446891164815 0 3 2
2272 300 1 0.09 6.538360898143141 1.0383983686033542 24.261502445514036 1 0 -1
271 35 1 0.09 2.0047401648810212 3.2004069045924424 20.82834094055686 0 3 2
3942 542 1 0.09 4.156561269095765 5.064419093544845 19.651316865276414 -1 2 -3
3941 542 4 -0.65 5.4805895237952695 3.9280996517259825 20.663374986369483 -1 2 -3
427 56 6 0.09 9.272238520455714 7.67484672583134 19.380022461174928 0 -1 1
3789 516 2 0.42 8.1696185471364 3.2781034944353897 21.74233709892097 0 -1 -1
2270 300 4 -0.65 7.490727092616456 2.7858802408678396 23.51558686634896 1 0 -1
273 35 2 0.42 4.236600908297723 2.7201495734770624 20.887641270333347 0 3 2
272 35 1 0.09 1.8702376852366656 1.9913292095417936 22.09026771616809 0 3 2
1255 165 1 0.09 2.945508038182553 7.812535234586088 13.292552242433155 0 -2 0
430 56 7 0.09 7.443654977889428 9.34372860409766 17.77042741005035 0 -1 1
3788 516 1 0.09 8.956819516423332 5.583053539492836 20.222108537042683 0 -1 -1
4741 675 1 0.09 8.955696545271033 2.132177619854072 17.94499459059337 0 1 0
725 95 6 0.09 1.217748546033365 2.665724821446017 25.288277866932603 0 -1 0
1254 165 1 0.09 3.8883010383895282 8.697052142346443 14.66902768408541 0 -2 0
3170 421 7 0.09 2.3038567737736972 8.374478606662242 20.602424169315857 2 1 2
425 56 10 -0.66 9.286963259912923 7.653245516662929 17.213420595059016 0 -1 1
2273 300 1 0.09 5.483640378849787 2.4965613087974314 24.43871846101816 1 0 -1
4330 607 3 -0.04 5.506235810397337 2.929603281861428 13.001576743907814 2 2 -1
3902 535 1 0.09 -0.25921083954063995 4.448891730330197 14.587215037980112 1 -1 -1
4380 615 1 0.09 2.784801662095556 8.401498530844634 25.521416499006296 0 2 -1
87 12 5 0.43 0.4137947141837307 2.616200800098166 36.7429449770969 1 -1 -3
729 95 7 0.09 1.8278007276529058 1.4156206607208064 27.60174427342136 0 -1 0
2829 377 2 0.42 3.876240829147007 7.142633270300642 30.388523415914015 -1 3 0
2824 377 3 -0.04 3.395564101074397 5.359727820821318 31.17668823888737 -1 3 0
1814 237 7 0.09 1.8191107200269996 4.061024191258393 33.2552329903658 0 0 0
2604 347 1 0.09 1.737138485770402 8.135005805477014 30.226149617822138 0 1 1
2602 347 3 -0.04 2.006545607628118 8.498572255294466 29.193494693663958 0 1 1
830 109 10 -0.66 5.098405535726018 3.3708696651385455 29.413243147149036 2 0 -3
829 109 8 0.05 6.455855824768393 3.045701785158178 29.665798490815067 2 0 -3
3584 482 1 0.09 3.6028362379942696 8.650290564559672 35.41199546408215 2 0 1
2603 347 4 -0.65 3.4388604073756532 8.39660541573629 29.088206323032903 0 1 1
2825 377 4 -0.65 4.316742353954289 6.5063626512154284 30.9810391020119 -1 3 0
2826 377 1 0.09 4.121820305639798 4.486243129438612 31.482441567676133 -1 3 0
4094 567 1 0.09 4.466192208763497 0.5726632905186728 31.850605008544893 -1 2 -1
831 109 5 0.43 4.8874701333894475 4.213077411466569 29.84297821495916 2 0 -3
2606 347 1 0.09 1.5989345690458823 7.734707455354704 28.532461111678504 0 1 1
834 109 9 -0.27 7.16046883929295 3.829529408273223 28.52760027404653 2 0 -3
2607 347 2 0.42 3.700733621462982 8.927636845710191 28.279789290629385 0 1 1
1908 252 5 0.43 7.393192259317442 6.10722640211151 35.852300343154525 1 1 2
832 109 6 0.09 6.6057778276776205 1.9126268581648374 29.63387063456722 2 0 -3
2462 327 1 0.09 3.4725849571669665 8.723203397650872 32.58070384851632 1 -1 0
3032 403 7 0.09 -0.1096176178087285 4.122628060941253 30.480804998830457 2 2 2
85 12 8 0.05 1.0293705098914754 1.099922842900479 37.85213041754808 1 -1 -3
724 95 6 0.09 2.438981117397945 3.8294086067405813 25.848400169231972 0 -1 0
3581 482 4 -0.65 5.648818533309801 9.608768461959839 35.263348726382546 2 0 1
728 95 7 0.09 3.1776520523184257 1.6785838846947032 26.678933972706666 0 -1 0
2827 377 1 0.09 2.653868650910349 5.573318516233903 31.974208284979596 -1 3 0
2605 347 1 0.09 1.5467327798114912 9.471386319438892 29.02772713799518 0 1 1
3030 403 9 -0.27 -0.15428348747137102 5.208703151228925 30.08225967861 2 2 2
2828 377 1 0.09 2.8906749131121305 5.189993025486055 30.146491212680836 -1 3 0
1232 162 6 0.09 0.9628383772245475 7.412221382869406 33.86382776134488 0 2 -2
833 109 6 0.09 6.8255419718369215 3.2576220792711617 30.73910817766138 2 0 -3
1650 216 5 0.43 7.2310067263047415 8.649575252999428 35.42468299506989 0 1 0
1809 237 5 0.43 1.2909345233222655 1.5660860632226878 34.97845781694667 0 0 0
837 109 7 0.09 8.270330932833351 3.8666167772032427 28.67582621092662 2 0 -3
1528 200 7 0.09 7.574467169741433 7.984576551802913 38.16175275062153 -1 2 -3
1105 146 3 -0.04 4.068272507274655 3.2913099688340304 37.658731297622964 1 3 0
726 95 9 -0.27 2.308514513074917 2.2169214695886166 27.154007867274466 0 -1 0
1913 252 7 0.09 4.424709467780768 5.723524565908498 35.614370108522934 1 1 2
4093 567 1 0.09 5.438518034702514 2.1181526107749105 32.037886957183694 -1 2 -1
1906 252 8 0.05 6.35104235212671 4.98168005064035 34.64491458468966 1 1 2
835 109 7 0.09 6.791095090858115 4.876378548729368 28.472266902821524 2 0 -3
3145 418 6 0.09 6.0894799828718345 9.695120564429129 29.96000330526534 0 0 1
1649 216 10 -0.66 7.903207914050601 7.91628253471564 35.62254541539265 0 1 0
836 109 7 0.09 6.987212315467105 3.3506718784358194 27.556684552333373 2 0 -3
1231 162 6 0.09 0.18454258298965753 9.011473252713238 33.70529657538347 0 2 -2
727 95 7 0.09 2.7252811347425148 2.8923560788995593 27.990229250222267 0 -1 0
4090 567 3 -0.04 5.163588287437313 1.163782418616527 32.596250410461764 -1 2 -1
1107 146 1 0.09 4.119760092389907 2.202590121631677 37.42796003134849 1 3 0
3306 440 9 -0.27 8.551486874462858 1.0074299100780375 35.874692089167425 3 -1 1
3304 440 6 0.09 6.414954115924161 1.6827758925101315 36.21582503454077 3 -1 1
1813 237 7 0.09 0.04780511305009677 4.475832426702172 32.96467493109431 0 0 0
4602 652 1 0.09 5.371153865480305 0.07782251944321973 29.55289954332568 2 1 -1
1807 237 8 0.05 0.47536374956462746 2.442323435766809 33.50787435269545 0 0 0
89 12 6 0.09 1.9810515254940673 0.5646397174749349 38.13528145024493 1 -1 -3
1656 216 7 0.09 7.452063295375566 8.868470582805518 33.37129191561624 0 1 0
1808 237 10 -0.66 1.5490840012924378 1.7051094396479063 34.07597647905985 0 0 0
3302 440 10 -0.66 7.6364224797070746 2.9119062125780584 37.272631949449305 3 -1 1
3033 403 7 0.09 0.43500673352455876 5.8843666580421 30.71143331409013 2 2 2
4092 567 1 0.09 4.6100449282016465 1.5340076166559518 33.48287332488823 -1 2 -1
1228 162 8 0.05 0.010837726440991735 7.963721824047765 33.65098338602667 0 2 -2
3147 418 9 -0.27 7.980057402501458 8.687253528434848 29.70909172966714 0 0 1
3303 440 5 0.43 7.4128308834843235 3.6262259616107713 36.62908737388801 3 -1 1
3305 440 6 0.09 7.222692611590848 1.0080697997498174 37.575496846205056 3 -1 1
86 12 10 -0.66 1.1816036503073337 2.0233169263679756 36.815078145693576 1 -1 -3
3308 440 7 0.09 8.738899561671142 1.4224297649175048 34.81916578630931 3 -1 1
1811 237 6 0.09 0.30838755264304274 2.099004942147836 32.43489756204835 0 0 0
1108 146 1 0.09 3.397750510600227 3.7953674730070968 36.91627697863589 1 3 0
897 118 9 -0.27 0.7589387901368676 7.216246274523134 37.91865124023191 2 -2 -1
722 95 10 -0.66 0.6812694370606307 3.8295608623220683 26.990770762278927 0 -1 0
892 118 8 0.05 1.624757817597798 5.994763857525642 38.12932361587754 2 -2 -1
896 118 6 0.09 1.9897669757425005 5.5939573395222055 37.142420110015436 2 -2 -1
1652 216 6 0.09 9.299179177563047 9.333841733254857 35.219730757218784 0 1 0
2266 299 7 0.09 9.519009663396682 1.961682828293956 31.846229855505936 2 0 2
1911 252 9 -0.27 5.08608915469458 5.844326215597072 34.68914817131805 1 1 2
1910 252 6 0.09 6.935162498158247 5.4161151385878625 33.75841136889511 1 1 2
721 95 8 0.05 1.6308643231015911 3.110528149790464 26.201614895541848 0 -1 0
3582 482 1 0.09 4.927802806539777 8.133829993258447 36.64856560002018 2 0 1
3150 418 7 0.09 7.802297009805557 8.258109605307796 30.70928134293273 0 0 1
1914 252 7 0.09 4.424932438840789 5.46714145107763 33.8619814996341 1 1 2
1815 237 7 0.09 0.7595316485063552 4.153483683579103 34.67748493640916 0 0 0
1653 216 9 -0.27 8.481772988485224 8.400166693576802 33.375283699499875 0 1 0
1109 146 1 0.09 5.093376854181287 3.6689440081550835 37.60958691178469 1 3 0
3301 440 8 0.05 7.389158178794857 1.6446229208045238 36.70336710784916 3 -1 1
1648 216 8 0.05 8.952525370287853 8.350175752569449 34.81715316504271 0 1 0
1812 237 9 -0.27 0.8149694025015659 3.938257955224521 33.63288259643301 0 0 0
1907 252 10 -0.66 7.137192959724269 5.182425093145805 35.86402187926298 1 1 2
1909 252 6 0.09 6.119938287192249 3.9543298519942005 34.33924686415301 1 1 2
3580 482 3 -0.04 4.540488588099053 8.955631509831187 35.997693107649994 2 0 1
898 118 7 0.09 1.4034441405717057 8.046340711528448 37.403330527017076 2 -2 -1
1912 252 7 0.09 5.1090001485773975 6.876266627885943 34.377618819097165 1 1 2
1654 216 7 0.09 8.48315439055964 7.423775076101511 32.89128079195116 0 1 0
3148 418 7 0.09 8.99432038077423 8.922030996871689 29.53993960046181 0 0 1
4091 567 4 -0.65 6.316815161698949 0.3630884032934081 32.81874078595193 -1 2 -1
3752 510 1 0.09 8.894566706204017 8.977066125326978 26.574402587451633 0 -2 1
3351 446 5 0.43 8.910581709196906 1.0526357452313806 25.92767826941316 0 1 0
900 118 7 0.09 -0.15401148836064119 7.074223974168086 37.32907869874593 2 -2 -1
3583 482 1 0.09 4.124735699056643 9.631011242551926 36.758768731193086 2 0 1
3031 403 7 0.09 0.2387286368925221 5.217795230567463 29.033794727991307 2 2 2
1655 216 7 0.09 9.143615502868485 9.105737995803798 32.826193018819936 0 1 0
3307 440 7 0.09 9.525187972181902 1.0589194782752656 36.53260022890045 3 -1 1
723 95 5 0.43 0.024409449264905403 3.2596571126027953 27.22769044222685 0 -1 0
3149 418 7 0.09 7.658958083958052 7.919014072317746 28.987064291740133 0 0 1
4144 576 3 -0.04 5.639157258750768 10.319781048068284 4.061339559094747 -1 -1 -1
4145 576 4 -0.65 6.406256164399121 9.989144153794504 2.882310387174684 -1 -1 -1
4999 718 1 0.09 -0.07112392760988942 16.75343703184597 10.847189558154074 2 1 -1
4998 718 1 0.09 1.559817605778675 16.842062289366957 11.702204066353477 2 1 -1
3252 433 5 0.43 7.120125007714951 11.964918610073836 3.2750391983267155 1 1 0
3251 433 10 -0.66 7.641707319991791 12.767496142549557 3.3409695807869784 1 1 0
3408 453 1 0.09 7.300162039936214 16.628398615175147 12.16276556687087 2 2 -2
4560 645 1 0.09 1.2098908927949 15.734500475474745 2.17197650511684 3 1 -1
66 9 1 0.09 1.3671028977318826 10.862969354346495 11.773773465633633 -2 -1 1
4243 592 1 0.09 8.504215646393918 16.639915321085148 1.3355050161903566 2 -1 1
3535 474 1 0.09 0.15892804170289643 11.378738741812885 5.972815218488047 -2 0 1
2537 338 4 -0.65 4.190343070677801 14.09812503661922 2.6243818402063117 -1 0 -1
4148 576 1 0.09 6.245008088455877 10.223806957205747 4.944189317941704 -1 -1 -1
2541 338 2 0.42 5.162191341361808 13.901688305181747 2.4263211749152025 -1 0 -1
2536 338 3 -0.04 3.298953866014382 13.668561382525048 1.608534211813706 -1 0 -1
2538 338 1 0.09 2.291444135699576 13.548773519987632 2.0324009926012643 -1 0 -1
3537 474 2 0.42 0.18073336829564296 10.932680301060593 3.2792986711146495 -2 0 1
3254 433 6 0.09 8.115713430091969 12.065698065044442 5.203132529810167 1 1 0
4316 604 1 0.09 3.8526425503529067 16.46392265810388 4.85455439910847 2 -4 1
4312 604 3 -0.04 4.905915227489087 16.891258029791533 4.695229814843383 2 -4 1
4563 645 2 0.42 -0.1543545865991429 17.158283773586348 4.1070566940600095 3 1 -1
2540 338 1 0.09 3.6198201757033996 12.635957522507105 1.119016186584376 -1 0 -1
3821 522 4 -0.65 0.9594759601495337 10.466279033472052 1.5415196616637372 -1 1 1
3250 433 8 0.05 8.270774467712279 13.004494532037201 4.584965944186473 1 1 0
4103 569 4 -0.65 3.6814761181131135 17.392562505583854 7.6311490851817245 -1 1 2
4314 604 1 0.09 5.006885781887375 16.874606549569418 3.620121762766894 2 -4 1
772 101 3 -0.04 4.2075061351017355 14.269540849197739 9.185379328872765 2 1 3
3820 522 3 -0.04 2.3263827940312494 10.16791282111411 1.8465078617508417 -1 1 1
3534 474 1 0.09 1.6224621980612712 10.873475387266959 5.12192625183307 -2 0 1
4242 592 1 0.09 9.078744188041302 15.215666901715279 2.312495972728331 2 -1 1
4558 645 3 -0.04 1.2897581132450286 16.41727416674362 3.0597630562958327 3 1 -1
3253 433 6 0.09 9.33390061077328 13.181129719930862 4.497069916281408 1 1 0
3860 528 1 0.09 5.585997891432165 18.553238702735072 9.447890690008254 3 -2 -1
1715 225 10 -0.66 5.368052289495846 9.91104653098441 8.606571833747175 1 2 2
4147 576 1 0.09 4.6561774350030785 9.742116221856325 4.2344304300934335 -1 -1 -1
4313 604 4 -0.65 4.965683664464192 18.217685566739068 5.269247640260455 2 -4 1
4146 576 1 0.09 5.245199871084628 11.334407706513696 3.9102580411327983 -1 -1 -1
2539 338 1 0.09 3.3450115246416123 14.417674926350315 0.792276500527795 -1 0 -1
231 30 2 0.42 5.538148441366757 10.429095869571011 10.385541217086699 0 2 -2
4562 645 1 0.09 2.0102254818169443 16.0113642639105 3.8064978238514042 3 1 -1
4315 604 1 0.09 5.665248637260125 16.257562387501054 5.168862216018295 2 -4 1
2416 320 1 0.09 2.7958997982316056 14.566415115899737 12.600021089012031 0 2 1
4317 604 2 0.42 4.478824285443598 18.09337156874247 6.084234711970629 2 -4 1
4102 569 3 -0.04 2.23964969142867 17.431143120124975 7.437737057805523 -1 1 2
4240 592 3 -0.04 8.21228390784155 15.832206348157756 1.9967128981701754 2 -1 1
4104 569 1 0.09 1.9946494431017627 16.53748311157068 6.756148216008899 -1 1 2
5001 718 2 0.42 1.1297031951413004 14.31848764973671 10.550741443938724 2 1 -1
4997 718 4 -0.65 1.3736592502325444 15.236541904471473 10.268274151234655 2 1 -1
3256 433 7 0.09 7.912018904775998 14.04903227467818 6.549376786047851 1 1 0
773 101 4 -0.65 4.167947649928716 15.52007929190038 9.913908879711535 2 1 3
3410 453 1 0.09 5.517726498242339 17.063552314873245 12.080757064477774 2 2 -2
227 30 4 -0.65 5.463095512868048 10.868496259458166 11.2495717028261 0 2 -2
437 57 1 0.09 7.43982118336744 11.21977453649136 0.9273738020461605 0 1 2
777 101 2 0.42 3.2367050908215727 15.512566605844476 10.224616467755842 2 1 3
774 101 1 0.09 3.4074310371542906 14.130056359682618 8.397477534697368 2 1 3
68 9 1 0.09 -0.16515630124257513 11.801345161014666 12.13098557679525 -2 -1 1
69 9 2 0.42 0.4241817366489352 11.94000610940058 9.841261515028489 -2 -1 1
1720 225 7 0.09 7.906375680997829 10.562241359176584 9.285539938718022 1 2 2
65 9 4 -0.65 0.8048086122237303 12.577757747338625 10.47959823898111 -2 -1 1
4107 569 2 0.42 3.9476085183865672 16.590628904755327 8.037931253237831 -1 1 2
4996 718 3 -0.04 0.802856151774755 16.164129318579338 11.209359877365697 2 1 -1
4561 645 1 0.09 1.6828984775268698 17.45007783266319 2.845921988448911 3 1 -1
3257 433 7 0.09 6.503738534022606 14.018284835253475 5.412352064191797 1 1 0