LAMMPS data file via write_data, version 29 Aug 2024, timestep = 7210000, units = real

5727 atoms
10 atom types
4998 bonds
8 bond types
7809 angles
10 angle types
7148 dihedrals
7 dihedral types

-0.7432158981483497 39.684335898160626 xlo xhi
-0.39521105618945995 39.132321056177375 ylo yhi
-0.2895293485823487 38.727749348563705 zlo zhi

Masses

1 1.008
2 1.008
3 12.011
4 15.999
5 1.008
6 1.008
7 1.008
8 12.011
9 12.011
10 15.999

Pair Coeffs # lj/charmmfsw/coul/long

1 0.024 2.38761 0.024 2.38761
2 0.046 0.400014 0.046 0.400014
3 0.078 3.65268 0.01 3.38542
4 0.1921 3.14487 0.1921 3.14487
5 0.046 0.400014 0.046 0.400014
6 0.035 2.38761 0.035 2.38761
7 0.024 2.38761 0.024 2.38761
8 0.056 3.58141 0.01 3.38542
9 0.078 3.6527 0.01 3.38542
10 0.1921 3.1449 0.1921 3.1449

Bond Coeffs # harmonic

1 322 1.111
2 428 1.42
3 545 0.96
4 222.5 1.528
5 309 1.111
6 322 1.111
7 428 1.42
8 545 0.96

Angle Coeffs # charmm

1 57.5 106 0 0
2 35.5 108.4 5.4 1.802
3 45.9 108.89 0 0
4 50 106 0 0
5 34.6 110.1 22.53 2.179
6 35.5 109 5.4 1.802
7 34.6 110.1 22.53 2.179
8 35.5 108.4 5.4 1.802
9 75.7 110.1 0 0
10 45.9 108.89 0 0

Dihedral Coeffs # charmmfsw

1 0.18 3 0 1
2 0.24 3 0 1
3 0.14 2 0 0
4 1.13 1 0 0
5 0.16 3 0 1
6 0.18 3 0 1
7 0.16 3 0 1

Atoms # full

665 90 7 0.09 6.211355004661966 6.191780761384337 3.394983099204633 0 -1 1
666 90 7 0.09 6.134466375772657 4.365005037153645 3.790181713754955 0 -1 1
661 90 6 0.09 7.952258853010786 4.926020374509219 2.1102736833392606 0 -1 1
664 90 7 0.09 4.860681757935307 4.997552785257984 2.8045466014528055 0 -1 1
663 90 9 -0.27 5.944585617715004 5.122121387543086 3.067947820627975 0 -1 1
4836 630 7 0.09 8.30938853481658 6.663314806858931 9.605161692032414 1 0 1
3524 472 4 -0.65 7.169701770502065 1.3478818296616502 2.7936514145107614 0 1 1
658 90 8 0.05 6.883010576482372 4.827222710472034 1.8957696783014413 0 -1 1
5112 661 9 -0.27 -0.2812864146471041 -0.1518979982457698 4.573078536479669 -1 -1 2
3539 474 1 0.09 2.974476758464012 3.0712495867584524 4.683110751522564 1 0 2
3537 474 1 0.09 2.5980385060894293 4.705692568111101 5.329914907067609 1 0 2
5107 661 8 0.05 -0.10368964584901885 1.3326112056137298 4.229592136764655 -1 -1 2
662 90 6 0.09 6.674515287961714 3.7944783103745046 1.643283666622677 0 -1 1
4983 647 5 0.43 -0.4343485828879833 5.326628712673799 3.057894029922478 3 2 0
4614 606 5 0.43 5.678494684528256 7.320248054138753 1.2445763188882553 0 0 -1
4613 606 10 -0.66 5.083890258005095 7.980534794184251 1.5389474002374743 0 0 -1
4985 647 6 0.09 1.0721111793164255 5.659912303302528 1.4279209036104905 3 2 0
660 90 5 0.43 7.3787084311523365 5.586436255328727 0.18991231452204388 0 -1 1
4130 551 1 0.09 0.31398689467897567 1.900231787028582 7.556728918437568 0 -2 0
659 90 10 -0.66 6.667896496122141 5.684623236238153 0.8210272569797668 0 -1 1
1601 214 7 0.09 1.5288857165946501 8.410773449962134 4.628686603031686 -1 0 0
1600 214 7 0.09 0.29308846425323565 7.083840304775584 5.284157857320577 -1 0 0
1599 214 9 -0.27 0.7225736252205863 7.598730964117517 4.37840614785077 -1 0 0
238 33 6 0.09 2.2661670242515375 1.0651132374254144 8.786589374754486 0 -2 -1
1602 214 7 0.09 1.2088683561580065 6.837124813775745 3.806904036802897 -1 0 0
3004 402 1 0.09 8.496086092816308 -0.19534253985557087 9.409575503407446 0 0 -1
5111 661 6 0.09 0.8574118342409072 1.5799648714702308 3.6750013094021012 -1 -1 2
3538 474 1 0.09 4.259918704849541 4.0915850163720355 5.5466069642717315 1 0 2
3535 474 3 -0.04 3.1720677160264303 3.795010264975482 5.507846785705926 1 0 2
1594 214 8 0.05 -0.3606503376865724 8.238338439233981 3.6049911522692986 -1 0 0
3300 442 1 0.09 4.06188071362486 1.1363330996600514 3.4964458034748285 -1 0 -2
802 109 7 0.09 8.303167346831584 7.831091978356005 1.3351820203499711 2 0 -1
3298 442 3 -0.04 4.066646127502927 0.09176252105609739 3.116629847187501 -1 0 -2
3526 472 1 0.09 9.091083829295632 0.35575028278700105 2.954596751322006 0 1 1
2739 366 1 0.09 8.955857605691028 7.756553149120949 7.063274484526991 1 1 -2
3528 472 2 0.42 7.6026184092024085 1.9447039227410508 3.412409119196499 0 1 1
3299 442 4 -0.65 4.341264165523815 0.19091012928390327 1.701172499924382 -1 0 -2
4981 647 8 0.05 1.196244610408483 4.831490811324801 2.106557241523749 3 2 0
801 109 9 -0.27 8.470517878778253 8.514018318531555 2.2057485540080126 2 0 -1
4131 551 2 0.42 -0.179017091952136 3.792464899152492 8.559944951454927 0 -2 0
4982 647 10 -0.66 -0.03032001625758529 4.5184683741542315 2.7678680332409114 3 2 0
3303 442 2 0.42 5.229978886385699 0.38684455150151853 1.4799977794989905 -1 0 -2
5524 707 6 0.09 5.6373848325376095 8.98224620817025 5.194406888244357 1 0 1
1591 213 1 0.09 8.214392123410429 2.2491897198872506 11.835374654990265 0 0 1
2737 366 3 -0.04 8.27197523670838 8.614771294340631 6.8800426515298625 1 1 -2
4143 553 5 0.43 2.8276786328965478 9.088292473170831 7.6099017523886525 1 -1 2
3597 481 7 0.09 0.5456551724971752 5.1866399576863715 12.457427920134041 3 1 2
4618 606 7 0.09 2.227269569150655 8.291874645154353 1.7914449349142458 0 0 -1
5526 707 9 -0.27 4.718308168124232 7.410630952328375 6.243697322004696 1 0 1
5527 707 7 0.09 5.1933372427812445 7.681434949711241 7.120940944197813 1 0 1
4988 647 7 0.09 1.2757590107669499 3.2749150902960484 0.4681076858343246 3 2 0
5528 707 7 0.09 5.096428348730661 6.4595710312101495 5.772862482360196 1 0 1
4989 647 7 0.09 1.5400783561587348 2.6266167415049626 2.0549436466879976 3 2 0
5525 707 6 0.09 4.324328168447708 8.225652844144776 4.252995288338717 1 0 1
3301 442 1 0.09 3.001175759603788 -0.225736592223998 3.1978689961919633 -1 0 -2
4617 606 9 -0.27 2.7750672619555106 8.69964318047479 0.9362583395115873 0 0 -1
3881 519 6 0.09 8.95385223248409 3.630529436111014 6.190934100076993 0 0 -1
4127 551 4 -0.65 -0.322017153525166 2.9789986631955254 9.033970643229532 0 -2 0
4835 630 7 0.09 8.388003599387202 5.673414612022187 11.043000898752942 1 0 1
4834 630 7 0.09 6.892244210958295 5.669518667192084 10.043132242651991 1 0 1
5529 707 7 0.09 3.638410667923286 7.174487240509107 6.523311956712926 1 0 1
4986 647 9 -0.27 1.7276431789495414 3.552317951896322 1.4621687614406544 3 2 0
4984 647 6 0.09 1.9200886211036838 5.187935408878851 2.91241658836959 3 2 0
4619 606 7 0.09 1.9630392370271386 8.73749887734031 0.23737677417662129 0 0 -1
5521 707 8 0.05 4.622687886255343 8.543691477496173 5.242834002191363 1 0 1
3594 481 9 -0.27 0.3856248298328431 6.269246882300197 12.218290976703907 3 1 2
3523 472 3 -0.04 8.000481881179375 0.17672080960393421 2.7820496109391626 0 1 1
4832 630 6 0.09 6.4504657563138865 7.947145242588679 10.92713777468061 1 0 1
3985 532 7 0.09 -0.04809882954720823 7.320974663302592 0.2804360453584964 0 0 -1
4146 553 9 -0.27 3.6427184565170423 9.244519950929952 10.76064619519509 1 -1 2
236 33 10 -0.66 3.780681718435588 -0.04011325891215689 9.557400780049209 0 -2 -1
2140 286 8 0.05 4.3125329176223755 -0.01890207906433905 12.636693290723708 0 0 2
5490 703 9 -0.27 -0.19886121492968478 7.169443592832699 8.2203748936989 0 -1 -1
3536 474 4 -0.65 2.7884098011620373 3.163584109799701 6.750865435943406 1 0 2
3540 474 2 0.42 3.502345494676155 2.4678009760251816 6.881047658733097 1 0 2
4142 553 10 -0.66 2.6336920484207167 9.078219742396907 8.565933836791368 1 -1 2
4615 606 6 0.09 3.817107024965053 6.722411065264232 0.5397932174473399 0 0 -1
4829 630 10 -0.66 6.5375192518477485 6.62272535706259 12.48885993384619 1 0 1
3091 414 3 -0.04 6.0137425117733105 2.140994866402446 7.389646435755356 -1 2 3
3095 414 1 0.09 6.510714843195937 2.3294184585869635 6.344261042689373 -1 2 3
3094 414 1 0.09 6.904666900263522 1.594254524140148 8.022626302423205 -1 2 3
5487 703 5 0.43 1.3707704217996115 4.504331180046783 7.082288640744988 0 -1 -1
5522 707 10 -0.66 3.643767648468666 9.419400703371995 5.743170287602533 1 0 1
367 50 7 0.09 1.0797649217951617 2.0688946493195255 11.518561830977834 0 2 -3
899 122 1 0.09 2.906081127268081 3.889844453553449 10.815278067367899 0 1 1
5491 703 7 0.09 0.1386618600086129 8.061425055185927 8.80992525393087 0 -1 -1
368 50 7 0.09 0.6836768259049579 0.32822602685940105 11.867162075094328 0 2 -3
895 122 3 -0.04 3.8937398694493135 4.424356649642202 10.564299477470255 0 1 1
1589 213 4 -0.65 8.43206951123495 2.9504813214118406 9.806948576033788 0 0 1
4987 647 7 0.09 2.8440948176465177 3.5040155982645973 1.3029362487144367 3 2 0
1590 213 1 0.09 6.742870527531467 2.485292745566492 10.800862402332955 0 0 1
4148 553 7 0.09 2.6347650899447377 8.893532642265102 11.173388708239292 1 -1 2
3093 414 1 0.09 5.8276245414279595 3.163134997370337 7.837899733175901 -1 2 3
2141 286 10 -0.66 4.521201225361324 1.1810297115996549 11.951653449293902 0 0 2
366 50 9 -0.27 0.6720688578954248 1.364769059561706 12.230127579049393 0 2 -3
1588 213 3 -0.04 7.701434088960896 2.901059500052955 11.039561021922111 0 0 1
3092 414 4 -0.65 4.766019344406308 1.3468904107490145 7.203239948914509 -1 2 3
235 33 8 0.05 2.3955893625467337 0.06974293863475023 9.236465605960694 0 -2 -1
4830 630 5 0.43 5.930718527082311 5.956972134021039 12.044227448637576 1 0 1
4147 553 7 0.09 4.413010159496193 8.82571792601067 11.417335150169938 1 -1 2
3096 414 2 0.42 4.647938856796242 0.9395146423939431 8.123234976823257 -1 2 3
897 122 1 0.09 3.682829854980951 5.196756899569551 9.770223482281216 0 1 1
3883 519 7 0.09 8.87951435579297 5.59240063120675 4.643442521204118 0 0 -1
5488 703 6 0.09 1.7991681604973988 6.931569703746084 7.423197346482486 0 -1 -1
4833 630 9 -0.27 7.721429494620775 6.274291979981571 10.457011709438943 1 0 1
5489 703 6 0.09 1.4579875049072801 6.035940888532303 8.963859599158377 0 -1 -1
5485 703 8 0.05 1.0241738012174741 6.316988845964292 7.9927402696864664 0 -1 -1
4831 630 6 0.09 8.053652626297708 7.827668236723149 11.90452527274438 1 0 1
896 122 4 -0.65 4.46991648560271 5.081660561524933 11.727160451746057 0 1 1
4141 553 8 0.05 3.787993949888042 8.881905671508882 9.304295499047024 1 -1 2
4828 630 8 0.05 7.201578761655215 7.305252450604179 11.44597385349157 1 0 1
4145 553 6 0.09 4.083492200709002 7.795622100686959 9.188899523293413 1 -1 2
5486 703 10 -0.66 0.6510010514237305 5.145859834711089 7.2548971390954025 0 -1 -1
239 33 6 0.09 1.9201550500420321 0.0009593282098501188 10.267372904327951 0 -2 -1
898 122 1 0.09 4.665820078785639 3.6624463862804078 10.341417847820454 0 1 1
5110 661 6 0.09 0.038376841678000484 1.9490854878439574 5.108786168505772 -1 -1 2
237 33 5 0.43 4.059581403262303 0.4055735508822286 10.371095655179513 0 -2 -1
4126 551 3 -0.04 -0.6029147918245741 2.005575785591553 8.130527151757397 0 -2 0
1592 213 1 0.09 7.592330369265232 3.8974748948741125 11.574676877234861 0 0 1
1593 213 2 0.42 8.990376525873405 2.1616326587490935 9.793357284276356 0 0 1
4612 606 8 0.05 4.04752256851947 7.8283254657649675 0.5494608215939643 0 0 -1
1598 214 6 0.09 -0.018989481046599366 8.62656642430411 2.6715440449026673 -1 0 0
900 122 2 0.42 4.025640810200701 4.683399465524157 12.546490052090618 0 1 1
2741 366 1 0.09 7.56627706396103 8.28515253364959 6.152301085493818 1 1 -2
2740 366 1 0.09 7.652088570903317 8.887526507193826 7.784313017556816 1 1 -2
804 109 7 0.09 7.660118565535615 8.270930516878117 2.9740389257397655 2 0 -1
3596 481 7 0.09 1.2264896264378196 6.383394208289519 11.475619701134459 3 1 2
5493 703 7 0.09 -0.6150070206275691 7.509755319741345 7.235181011751934 0 -1 -1
2884 386 6 0.09 -0.4257550740048853 1.6410892434770306 0.07503332537414509 1 0 1
3525 472 1 0.09 8.018575960471834 -0.36825122813575917 1.8608499838562493 0 1 1
2142 286 5 0.43 4.2677211909909305 1.861127908886898 12.608560341791597 0 0 2
3527 472 1 0.09 7.651023232765782 -0.367452281919547 3.67907411424388 0 1 1
3168 424 2 0.42 8.035253190133908 6.798055762804855 17.802627918606714 2 0 0
4004 535 10 -0.66 2.0821597087958468 6.577540060895834 18.321871059652445 0 1 2
4005 535 5 0.43 2.4062571702994213 7.439691554343584 18.110892732911672 0 1 2
640 87 7 0.09 4.073442409123108 4.912995438895723 15.632961821954014 0 0 0
636 87 5 0.43 2.873438016398118 3.32757078431954 14.364491773193688 0 0 0
635 87 10 -0.66 3.5643478741232535 3.301101834851906 13.711337678434683 0 0 0
634 87 8 0.05 4.761805967414396 3.025652498073421 14.581612526519839 0 0 0
638 87 6 0.09 4.708086753890347 2.0955136011167665 15.215460680242767 0 0 0
639 87 9 -0.27 5.004438925979987 4.425957793237602 15.257206221029351 0 0 0
3265 437 1 0.09 2.603602682129172 3.4741703127413586 17.081737331176996 -1 0 -1
4401 582 9 -0.27 6.690072870209177 8.4910992211494 19.926256094856875 1 -1 -1
3264 437 1 0.09 0.9952158271662341 2.814178501714612 17.611113477477883 -1 0 -1
3262 437 3 -0.04 1.5786100603244555 3.32330038058631 16.73034124032747 -1 0 -1
3266 437 1 0.09 1.0009926640326978 4.223593802255588 16.47163182747382 -1 0 -1
3263 437 4 -0.65 1.6627444940085927 2.483539142653502 15.631229187023893 -1 0 -1
641 87 7 0.09 5.434135817392596 5.149971331943356 14.606845565507601 0 0 0
156 21 2 0.42 2.1962286489876064 6.667771481915371 20.371222078889943 -2 0 -2
4397 582 10 -0.66 6.988868999461167 6.188840535074993 19.25540828045812 1 -1 -1
4259 566 7 0.09 3.1458928739623113 0.7663759494612663 16.983196605724 1 1 2
3164 424 4 -0.65 8.514445686624358 7.472730951495296 17.209167742161707 2 0 0
3267 437 2 0.42 0.8424162665336747 1.9943857247546282 15.555876148563549 -1 0 -1
4663 611 7 0.09 7.7838999013828385 2.5267395371715056 19.168311798503368 2 1 1
4662 611 9 -0.27 7.7805483040619485 2.7424742416198375 18.083902159689714 2 1 1
4664 611 7 0.09 6.8663691203439114 3.3631310155326624 18.00151165827197 2 1 1
4665 611 7 0.09 8.671637198598198 3.295189475678875 17.932327966456157 2 1 1
4007 535 6 0.09 0.4737964921095441 6.734271376012907 16.916520230046707 0 1 2
4003 535 8 0.05 0.7103083352262343 6.637274573790625 18.08002025868309 0 1 2
153 21 1 0.09 3.6039613493020983 8.288519389150325 22.05897420685641 -2 0 -2
4398 582 5 0.43 7.783949361067963 6.4294169238681445 19.846878969368348 1 -1 -1
4657 611 8 0.05 7.596517157622335 1.4989888158186209 17.199915275476354 2 1 1
4404 582 7 0.09 6.943681253633637 8.484442519926159 21.003531893143087 1 -1 -1
2504 334 6 0.09 4.572149796094317 4.3838694791664965 19.309246608671426 0 -2 -1
1989 265 1 0.09 7.80400882134678 5.346014974102385 24.349608733038433 0 1 0
4658 611 10 -0.66 7.452032963420164 1.9636387389703804 15.839067511954333 2 1 1
3595 481 7 0.09 0.5327308038433594 6.831039552209678 13.144145224250531 3 1 2
2834 379 6 0.09 -0.341848373054776 7.499675131974666 24.255626159144228 1 -1 -1
2683 359 3 -0.04 3.980886724322569 9.382977400609528 16.77793502451084 1 0 0
4010 535 7 0.09 0.29120999797161695 8.768672182056092 18.296820892137546 0 1 2
637 87 6 0.09 5.667949583230706 2.8927097121052197 13.874192813903889 0 0 0
4403 582 7 0.09 7.640901890681109 8.651986299378617 19.31420824960576 1 -1 -1
4006 535 6 0.09 0.2476649740366612 5.6593067277515665 18.452208284165067 0 1 2
2144 286 6 0.09 3.4503934240364034 -0.05986234733250706 13.244958245164842 0 0 2
1987 265 3 -0.04 7.185062293812641 6.248129166278275 24.043852023311942 0 1 0
4029 538 5 0.43 5.33257404552396 0.04676415472363432 23.26115533337832 2 -1 -1
642 87 7 0.09 5.654040612898928 4.256935690643388 16.119860537245046 0 0 0
2238 298 1 0.09 5.840482789307379 -0.33771426089126144 19.550819430680665 1 0 1
4257 566 9 -0.27 3.469602405598259 -0.29130322226345473 17.202752933726604 1 1 2
2501 334 10 -0.66 2.547867642623174 3.995822109188749 19.727709771879063 0 -2 -1
2502 334 5 0.43 2.268579157933705 4.796939934889293 19.19529448171661 0 -2 -1
2057 274 1 0.09 9.021819007510066 0.6828052491248113 25.70233084500386 2 -1 0
2508 334 7 0.09 4.356291938919792 2.0349457227052765 19.504546756699657 0 -2 -1
1990 265 1 0.09 6.399683072881103 5.933258322279461 23.263578710053835 0 1 0
4260 566 7 0.09 4.5947238827032955 -0.20619792646601942 16.976666675894265 1 1 2
2259 301 1 0.09 8.506001176604231 2.40197065654395 22.95099825835546 0 3 -4
5465 700 7 0.09 0.9590406649872485 -0.3000080259561407 25.308427281235964 2 -1 1
4389 581 5 0.43 8.45518495051999 8.810735389883392 16.05516623549056 0 0 1
2684 359 4 -0.65 2.7933691903900635 9.347703228723091 17.595596250396646 1 0 0
4660 611 6 0.09 8.479284716615135 0.8734007575023752 17.207714410202353 2 1 1
3165 424 1 0.09 8.728687740784677 5.8859363517038945 16.12327497291772 2 0 0
2505 334 9 -0.27 4.44032946332142 2.6213503720643634 20.388683069924387 0 -2 -1
2181 291 5 0.43 3.4398019577652628 1.1354673644541893 25.199157200953778 0 3 1
154 21 1 0.09 3.098829124227635 8.740238354648294 20.32143011589901 -2 0 -2
4659 611 5 0.43 8.260556348036786 2.3432159445887852 15.454308887539286 2 1 1
2145 286 9 -0.27 5.52918092843572 -0.3893140451613819 13.466493803939942 0 0 2
4011 535 7 0.09 0.2602035175952937 7.768252677930205 19.846125301246737 0 1 2
4402 582 7 0.09 6.061352249190243 9.368349926548463 19.783862343278564 1 -1 -1
2260 301 1 0.09 6.875955352456233 2.994610420695103 22.77774177639326 0 3 -4
2261 301 1 0.09 7.621925716959435 2.857661433604219 24.490152971286186 0 3 -4
4391 581 6 0.09 7.0757952765808385 8.59560328227262 14.223965573520111 0 0 1
2864 383 1 0.09 0.20390326405042003 8.528666600594365 14.82152837051744 0 -1 -1
4340 575 7 0.09 1.2403690020643208 -0.07226065748758442 19.696127546117392 0 1 1
4396 582 8 0.05 6.076021746072442 7.296967343774151 19.316944170503085 1 -1 -1
4008 535 9 -0.27 0.03954431803724767 7.7373673414908595 18.751307407708293 0 1 2
4400 582 6 0.09 5.701036684907065 7.43369194303825 18.213057357515293 1 -1 -1
2148 286 7 0.09 5.8668091315223165 0.5083465224463862 14.02298941029548 0 0 2
2500 334 8 0.05 3.9536421771539008 4.053510366044597 20.09832629875288 0 -2 -1
4341 575 7 0.09 2.074991483467992 0.6422619886967336 21.0134648894925 0 1 1
2833 379 6 0.09 -0.07579288591568245 6.016442031483723 23.351339776235157 1 -1 -1
2258 301 4 -0.65 6.895606097858845 1.128729919245904 23.419379475420516 0 3 -4
152 21 4 -0.65 2.023509745737701 7.1158332282027 21.252752804202252 -2 0 -2
2507 334 7 0.09 5.468662874497133 2.6590021814309974 20.717448487052348 0 -2 -1
2506 334 7 0.09 3.912220167875792 2.123374910945863 21.29907011593323 0 -2 -1
2685 359 1 0.09 4.052598361930217 8.444608994030215 16.194889377379386 1 0 0
2257 301 3 -0.04 7.536258105499352 2.381293045652473 23.434191665990127 0 3 -4
4661 611 6 0.09 6.697236913507536 0.9741268430161223 17.499099011512826 2 1 1
4338 575 9 -0.27 1.1294110069436452 0.13413920849995398 20.770140982444477 0 1 1
369 50 7 0.09 1.1670094388578958 1.4782357485534745 13.248606208493468 0 2 -3
2182 291 6 0.09 4.5956004605928245 2.695657504024396 24.72160320159061 0 3 1
155 21 1 0.09 2.1163149092004994 9.189077076880917 21.791230066483436 -2 0 -2
2048 273 4 -0.65 1.0235424097372703 3.044062754677513 22.210821243656724 0 1 0
3309 443 2 0.42 -0.3184577773254251 1.7783309038794077 22.672638454091 0 -1 -2
2052 273 2 0.42 1.5442793207247503 3.2417102023266824 21.385442975984017 0 1 0
4339 575 7 0.09 0.29774717985984167 0.8494208998782184 20.93097953061011 0 1 1
2051 273 1 0.09 1.7299235262823234 2.8652963505802966 24.18014563433146 0 1 0
2049 273 1 0.09 2.916143088652713 3.288060959171434 22.929922910979354 0 1 0
2050 273 1 0.09 1.7581763834268895 4.555362743923775 23.37610520444415 0 1 0
2047 273 3 -0.04 1.8700298995917515 3.434263950918722 23.26737850254462 0 1 0
2262 301 2 0.42 7.3088231833159885 0.47698434946434853 24.043985523918597 0 3 -4
2503 334 6 0.09 4.155945300596628 4.705391645261473 21.007562422396994 0 -2 -1
1988 265 4 -0.65 6.556583138076216 6.789662677141491 25.201524793871812 0 1 0
1991 265 1 0.09 7.719189049627417 7.075411742798053 23.551837904869227 0 1 0
151 21 3 -0.04 2.7708508992308283 8.35832146218503 21.37414370970968 -2 0 -2
4399 582 6 0.09 5.160175877502263 6.911689067873512 19.917643606775535 1 -1 -1
15 2 7 0.09 9.342212678932603 4.334809597810182 19.551474557093727 -1 2 1
2687 359 1 0.09 4.82000395729338 9.483325217466174 17.5048738572385 1 0 0
2728 364 1 0.09 4.209095274404672 9.037634468570316 31.558406439526657 2 2 0
5413 695 8 0.05 4.515789995929643 0.7302608527486139 29.4385745614926 0 1 0
5414 695 10 -0.66 5.476818595033414 0.8846191189507684 30.479783743308943 0 1 0
5418 695 9 -0.27 3.4146859933788534 1.7618264013579372 29.6179642987075 0 1 0
5420 695 7 0.09 2.9700902901039377 1.6778678883303844 30.723237969807176 0 1 0
5421 695 7 0.09 2.5994321547273476 1.5553931529241498 28.888931545883693 0 1 0
5419 695 7 0.09 3.806638395502543 2.760842058229197 29.49797533791454 0 1 0
1646 220 7 0.09 5.617142047432378 2.080106740084471 37.729438700542104 0 0 -2
1349 182 10 -0.66 7.251515285589018 6.23937577839429 27.90836434308071 0 1 0
1054 143 7 0.09 3.3691335973022074 6.694957692863884 30.82315283548452 1 1 1
5415 695 5 0.43 6.2036342249432535 1.3764344727144973 29.991954917223374 0 1 0
4171 557 8 0.05 0.10381781709577054 6.80103431354345 30.29103901504966 1 1 0
5417 695 6 0.09 5.112533095418671 0.9072365554849393 28.521357805697885 0 1 0
3162 423 2 0.42 7.8632783650721425 2.620103684443754 27.96655668583751 -1 -1 -1
3158 423 4 -0.65 7.570417262014228 2.1179803637314283 28.748653623199374 -1 -1 -1
4162 555 7 0.09 1.9551006442478553 7.813083329179895 26.228711679915726 -1 0 -1
4176 557 9 -0.27 -0.5425193965232036 7.333495523900321 31.476784365071016 1 1 0
1050 143 5 0.43 6.800072670577322 5.49859862061791 30.83756181625558 1 1 1
4179 557 7 0.09 0.2603551445348755 7.444039443825177 32.202603178705914 1 1 0
4175 557 6 0.09 0.46786938135295775 5.767973297515417 30.443531500416665 1 1 0
1051 143 6 0.09 4.95633715442861 5.210372853716775 32.103147204474155 1 1 1
1052 143 6 0.09 5.094665313000913 4.038717011701777 30.803394195072592 1 1 1
1049 143 10 -0.66 5.969264895083086 5.789519377506025 30.378048631128177 1 1 1
4174 557 6 0.09 0.9260022295524575 7.537670286487139 30.02893330938936 1 1 0
3157 423 3 -0.04 8.47573471198955 2.554548806316091 29.73487986779855 -1 -1 -1
2185 291 7 0.09 5.697359898216415 3.989162245155759 26.73621368377665 0 3 1
1048 143 8 0.05 4.933790368975002 5.101538378663517 30.97494564683972 1 1 1
2099 280 4 -0.65 8.457780246762342 3.962240135724686 26.703938884127474 2 0 1
1859 248 10 -0.66 5.53184485192229 8.754861493281286 27.157276572750543 -1 0 0
2103 280 2 0.42 8.147881223336626 4.789118944371022 27.020766685202005 2 0 1
4157 555 10 -0.66 0.2532774892551153 5.862109360592998 26.758973064459006 -1 0 -1
5464 700 7 0.09 -0.5941032680194993 0.12288507561832818 26.262613506079024 2 -1 1
3161 423 1 0.09 8.492651191771051 3.6697153349491893 29.79944626557493 -1 -1 -1
1053 143 9 -0.27 3.600487789405247 5.61585980584675 30.47205812500738 1 1 1
1056 143 7 0.09 3.5785566314536332 5.68351453787852 29.3452478830704 1 1 1
1350 182 5 0.43 6.748697381112084 6.1906938265635185 28.74744309596966 0 1 0
4164 555 7 0.09 1.6497053268325472 7.5787957229605345 27.947696961238325 -1 0 -1
4535 597 6 0.09 8.932049841282836 1.6414641383388866 35.91674528240663 1 1 -1
3986 532 7 0.09 0.08716894239300799 7.923032803498652 37.547610035350964 0 0 -2
1055 143 7 0.09 2.800022113974676 4.938883274300559 30.91732436735187 1 1 1
3159 423 1 0.09 8.068072712881143 2.1810717508526216 30.6964886368038 -1 -1 -1
4158 555 5 0.43 -0.05174773539579891 6.3345019913784055 27.560080044128156 -1 0 -1
1354 182 7 0.09 8.940675781387345 7.393175394911285 30.066144959974118 0 1 0
4308 572 5 0.43 4.742545513293822 -0.36003976437283813 32.416288923077126 0 0 0
2186 291 7 0.09 4.889103300958858 2.9295080516650764 27.780267619295 0 3 1
2055 274 1 0.09 7.51183862890122 0.3328514985675646 26.699556653392573 2 -1 0
4962 644 7 0.09 7.696947917426472 2.566981621932738 33.67217990627922 -1 1 -4
2183 291 6 0.09 5.779732274095579 1.682407578329355 25.76792485236517 0 3 1
1351 182 6 0.09 7.948473983285197 8.29083004619202 28.012477703393763 0 1 0
2053 274 3 -0.04 8.425416479363607 -0.06873738482020075 26.154024564175188 2 -1 0
5416 695 6 0.09 4.016465109423708 -0.33872906208989484 29.429844411498983 0 1 0
1992 265 2 0.42 6.985306373876563 6.538270539188326 26.05973405881209 0 1 0
5462 700 6 0.09 0.5774576671909817 -0.05070223941272539 28.370961485501738 2 -1 1
4161 555 9 -0.27 2.180668423808262 7.154445663094273 27.041254107228276 -1 0 -1
5466 700 7 0.09 0.8184189586129778 1.2206751202020893 26.330420273419513 2 -1 1
4956 644 5 0.43 7.402689596949386 6.304711070055247 34.00238738295734 -1 1 -4
4954 644 8 0.05 6.872641905480339 4.539836148322225 34.24875228022828 -1 1 -4
4537 597 7 0.09 8.492750439478346 0.01948739307443681 37.93543269584085 1 1 -1
1861 248 6 0.09 3.7831126642511084 9.442916264767199 26.512466447585055 -1 0 0
2730 364 2 0.42 6.25466930570999 8.508121061832995 30.578219253824994 2 2 0
4961 644 7 0.09 5.865268943629635 2.6167480596118406 34.13242669101188 -1 1 -4
2438 325 7 0.09 0.2880487424443303 -0.06700531988157077 34.559552611180656 1 0 0
2179 291 8 0.05 4.805819040262266 2.2219201735303167 25.755930401443123 0 3 1
3156 422 7 0.09 7.663211509310548 8.31644815964882 38.4708996418431 -1 0 1
4160 555 6 0.09 1.89634415965206 5.102344590525198 27.697932812569196 -1 0 -1
4958 644 6 0.09 7.366719721888883 4.500615685255565 35.31364969815515 -1 1 -4
4957 644 6 0.09 5.894674061527168 4.900238822236638 34.30635037845479 -1 1 -4
1647 220 7 0.09 5.391216753647662 3.289185579720686 36.430677662154764 0 0 -2
3987 532 7 0.09 -0.516379764422166 6.322547711212056 37.93231721370338 0 0 -2
1790 239 10 -0.66 0.3526882667939344 8.537525013700362 34.749231265163814 0 0 1
2180 291 10 -0.66 3.806809324507693 1.281691703935794 26.058965274455897 0 3 1
3150 422 5 0.43 8.385553299424183 7.669493910319039 35.7282982383597 -1 0 1
5483 702 7 0.09 0.03309539410492235 5.648935203056494 35.48313297495604 0 1 0
2729 364 1 0.09 5.153208769670653 7.919321396070599 32.62475845482249 2 2 0
1642 220 6 0.09 3.206622184748995 2.07860766852485 38.135632509513755 0 0 -2
4960 644 7 0.09 6.576083625042989 3.1853397087271063 32.570882905812944 -1 1 -4
5482 702 7 0.09 -0.5756225092827456 4.229829929540779 35.85736399553721 0 1 0
5463 700 9 -0.27 0.5160347332064088 0.1485980856264455 26.278795011350798 2 -1 1
1353 182 9 -0.27 9.222679370940742 6.900537014258645 29.098734429844637 0 1 0
4156 555 8 0.05 1.6515377888037794 5.770543677815489 26.807221747182226 -1 0 -1
1640 220 10 -0.66 2.8810386245580677 2.985357844772861 36.267192140292856 0 0 -2
2439 325 7 0.09 0.6061120412927377 0.39572803950413993 36.20423626900633 1 0 0
2725 364 3 -0.04 5.172619398987942 8.919745735400427 32.13211103643973 2 2 0
3984 532 9 -0.27 -0.5729163902180542 7.334708926426212 38.35144821497157 0 0 -2
2748 367 2 0.42 2.0501487477852263 7.910310658026237 34.274150886083426 0 -1 0
3154 422 7 0.09 6.206445777914833 9.242089562496922 38.22868510463339 -1 0 1
2433 325 5 0.43 3.4177447703862187 -0.15211274796389568 34.1361128815971 1 0 0
4616 606 6 0.09 4.3317479463651285 7.975487245945343 38.502086647536906 0 0 -2
2726 364 4 -0.65 6.3521214330609785 9.156180224822505 31.3392104588939 2 2 0
2746 367 1 0.09 2.155507036556514 6.390629141612759 35.829057680092966 0 -1 0
4159 555 6 0.09 2.1675819313201314 5.431566749691578 25.871548681014907 -1 0 -1
3708 497 5 0.43 9.104398125846249 5.702981779342598 37.618187069926435 3 0 -1
2743 367 3 -0.04 3.0589014783652995 6.504311378870208 35.20507655028107 0 -1 0
4955 644 10 -0.66 7.5032268836601475 5.541806207877076 33.420310299663036 -1 1 -4
1639 220 8 0.05 3.668063878708282 2.809820140522233 37.44835151827048 0 0 -2
3152 422 6 0.09 6.109792498563444 8.165967758554789 35.89216096273631 -1 0 1
4163 555 7 0.09 3.294031403981739 7.209883079260823 27.223461988012225 -1 0 -1
3148 422 8 0.05 6.613527731723019 7.73820705418081 36.76733074214875 -1 0 1
3151 422 6 0.09 6.076818126475161 6.958249046956317 37.3204120095055 -1 0 1
1860 248 5 0.43 5.525025075727729 7.992184297545295 26.546161507222212 -1 0 0
1645 220 7 0.09 4.999535399898423 1.5414985222258824 36.189868433494055 0 0 -2
2184 291 9 -0.27 4.799622931460209 3.3802342702035757 26.80711545146132 0 3 1
2747 367 1 0.09 3.0787170465067435 5.561630830130776 34.70127870982395 0 -1 0
1643 220 6 0.09 3.7388471869943025 3.8441689208986745 37.86393364708211 0 0 -2
2744 367 4 -0.65 2.9857726427250952 7.518532913369027 34.188303787988076 0 -1 0
3149 422 10 -0.66 7.7316515346840795 7.072520723704677 36.236967077854295 -1 0 1
2745 367 1 0.09 4.012809935583648 6.552951352639961 35.843840189111084 0 -1 0
1641 220 5 0.43 3.017539590944286 2.1967526988549664 35.665214861076905 0 0 -2
1352 182 6 0.09 8.930154789281119 7.158506650513181 26.998618738459694 0 1 0
2432 325 10 -0.66 2.9092617405348156 0.17590916216533103 34.932641827561035 1 0 0
3707 497 10 -0.66 9.035597837429195 5.226866358614107 38.47061296697871 3 0 -1
4959 644 9 -0.27 6.754848494342443 3.139817768833168 33.63790371908939 -1 1 -4
1644 220 9 -0.27 5.00995494400026 2.390721528816435 36.8925017708811 0 0 -2
3777 506 5 0.43 7.253054021576398 9.152281245932363 33.13729828128395 -1 -1 1
3153 422 9 -0.27 7.0701896333143655 8.832914251338067 37.70408537985158 -1 0 1
5190 670 5 0.43 9.193272621527083 4.921392095957297 32.7989478309067 -1 0 0
3776 506 10 -0.66 7.812577321343866 8.849323409115241 33.82347026717924 -1 -1 1
4536 597 9 -0.27 8.739113979838027 -0.29229699095282785 36.93819861466724 1 1 -1
1348 182 8 0.05 8.314941591128129 7.239583480836238 27.907735083073966 0 1 0
1791 239 5 0.43 -0.3310378932512714 7.943103386487476 35.12895440439616 0 0 1
5484 702 7 0.09 -0.05789931794512393 4.241285418284617 34.13997877961186 0 1 0
2187 291 7 0.09 3.9821678024502267 4.072281023831627 26.7425833372976 0 3 1
5481 702 9 -0.27 -0.48902234421901936 4.890382607374971 34.964301001137265 0 1 0
5461 700 6 0.09 2.1822019818146434 -0.38462481536065246 27.632582623616646 2 -1 1
4539 597 7 0.09 7.753828207958254 -0.38328111414660526 36.378492218240304 1 1 -1
3018 404 2 0.42 3.670698225749579 11.587309564373843 2.8481123576129597 1 -2 1
4739 620 10 -0.66 1.2828954577665885 14.005148131471847 0.7947399274216642 1 0 1
3190 427 7 0.09 7.8221219796875765 11.751115490442253 1.7633224282114508 0 1 -1
3013 404 3 -0.04 2.0531642985724754 12.183948410807274 3.7505825754628077 1 -2 1
3191 427 7 0.09 6.636293040491312 13.13774593956033 2.1021826636143732 0 1 -1