LAMMPS data file via write_data, version 29 Aug 2024, timestep = 7210000, units = real

6444 atoms
10 atom types
5444 bonds
8 bond types
7888 angles
10 angle types
4628 dihedrals
7 dihedral types

0.5242345486367164 43.08241545136394 xlo xhi
0.8587772717527464 42.6829227282459 ylo yhi
0.9520384612951567 42.2907715387101 zlo zhi

Masses

1 1.008
2 1.008
3 12.011
4 15.999
5 1.008
6 1.008
7 1.008
8 12.011
9 12.011
10 15.999

Pair Coeffs # lj/charmmfsw/coul/long

1 0.024 2.38761 0.024 2.38761
2 0.046 0.400014 0.046 0.400014
3 0.078 3.65268 0.01 3.38542
4 0.1921 3.14487 0.1921 3.14487
5 0.046 0.400014 0.046 0.400014
6 0.035 2.38761 0.035 2.38761
7 0.024 2.38761 0.024 2.38761
8 0.056 3.58141 0.01 3.38542
9 0.078 3.6527 0.01 3.38542
10 0.1921 3.1449 0.1921 3.1449

Bond Coeffs # harmonic

1 322 1.111
2 428 1.42
3 545 0.96
4 222.5 1.528
5 309 1.111
6 322 1.111
7 428 1.42
8 545 0.96

Angle Coeffs # charmm

1 57.5 106 0 0
2 35.5 108.4 5.4 1.802
3 45.9 108.89 0 0
4 50 106 0 0
5 34.6 110.1 22.53 2.179
6 35.5 109 5.4 1.802
7 34.6 110.1 22.53 2.179
8 35.5 108.4 5.4 1.802
9 75.7 110.1 0 0
10 45.9 108.89 0 0

Dihedral Coeffs # charmmfsw

1 0.18 3 0 1
2 0.24 3 0 1
3 0.14 2 0 0
4 1.13 1 0 0
5 0.16 3 0 1
6 0.18 3 0 1
7 0.16 3 0 1

Atoms # full

3188 458 4 -0.65 5.989785406282442 6.977321698308377 5.4291115453940355 1 0 1
2922 413 2 0.42 7.0361869415847815 3.169949551566533 8.010607083964606 -1 2 1
2918 413 4 -0.65 6.467731562721757 3.01920171505054 7.254395355268591 -1 2 1
2917 413 3 -0.04 5.528438886059653 4.0671376904531265 7.267782766939428 -1 2 1
2921 413 1 0.09 5.3625480510333166 4.341123323332577 6.213580317125417 -1 2 1
3179 456 1 0.09 10.362281652939247 5.655983360654378 2.6470970595356698 1 2 1
2816 396 4 -0.65 5.856674237467595 4.813204268783121 1.3976275014083637 -3 0 0
3187 458 3 -0.04 4.79749126965161 7.599766556382139 5.994527679398628 1 0 1
3192 458 2 0.42 6.639463555620981 7.003591700784948 6.11775845645842 1 0 1
3189 458 1 0.09 3.94036899801141 6.9632405950629614 6.074458181766726 1 0 1
2539 350 3 -0.04 4.4126086842991485 5.50320410816448 11.196828998219672 1 0 1
3190 458 1 0.09 4.916806498671338 8.106113433484328 6.9837008023486895 1 0 1
2952 418 2 0.42 0.8750842440475298 2.7517266921608647 2.677468472986468 1 1 -2
3191 458 1 0.09 4.5316719437517285 8.392990276707698 5.27100939607392 1 0 1
1830 239 2 0.42 8.51778710815415 8.475324843739237 7.159229922804911 -1 1 1
1826 239 4 -0.65 7.93232678820011 7.689722247250432 7.436704983849457 -1 1 1
4910 745 4 -0.65 9.996919322611015 10.616423120055197 7.166914489734958 1 -1 1
1458 192 5 0.43 1.4301163489212847 6.059711468476383 6.848026730255178 0 -1 1
3175 456 3 -0.04 9.554052202981431 5.035920207807578 3.0469985670275768 1 2 1
3178 456 1 0.09 9.958831279602931 4.524311473459779 4.001506252720619 1 2 1
1459 192 6 0.09 2.3835479943713116 6.8261144886442064 4.9371420864968645 0 -1 1
1675 220 8 0.05 10.017595733372355 4.777379601050377 7.008116531176222 0 -1 2
5959 920 3 -0.04 6.457393973871031 1.015152587053652 11.331081951918735 0 2 2
1827 239 1 0.09 8.456885436255616 8.192733117989597 9.434235239182767 -1 1 1
2033 267 4 -0.65 8.548300399174979 9.674679272500487 1.8798606086031395 1 1 3
2819 396 1 0.09 4.5164719111922 6.385564829791803 2.1417136640738175 -3 0 0
2037 267 2 0.42 7.6565003889217484 9.231161755108523 1.9759964794944256 1 1 3
2815 396 3 -0.04 5.332579205703264 5.643038671895405 2.4708003847155613 -3 0 0
5666 871 4 -0.65 2.6262252187016757 6.716912594463221 8.633099778491435 -1 3 -1
2817 396 1 0.09 4.81501479079487 5.00388200790699 3.161025218206454 -3 0 0
3177 456 1 0.09 8.932805282351548 5.849491433749033 3.5030383290243625 1 2 1
1973 259 4 -0.65 2.13484433615985 1.4262124968175605 3.8105268464091946 0 1 4
3904 577 1 0.09 8.362304189262893 1.8948096539417654 3.301962478741359 2 -2 2
2478 339 2 0.42 7.178099585370426 3.8881513793904086 14.60192808659977 -1 1 0
654 87 9 -0.27 0.8041887613155017 11.060167251242186 1.9442260299560012 0 1 2
2818 396 1 0.09 6.1055782591427255 6.1370003629633665 3.0931118436349956 -3 0 0
1678 220 6 0.09 9.277046342756028 3.977309501831557 6.758737570629793 0 -1 2
3176 456 4 -0.65 8.84032474832224 4.215022212058672 2.1623924546891304 1 2 1
1972 259 3 -0.04 2.266449993134535 2.3607078808091173 4.856885819890401 0 1 4
1456 192 8 0.05 1.2845000075177517 6.679985023631325 5.00929151451414 0 -1 1
3276 472 2 0.42 4.775868009976144 2.1914168122142925 14.228124498460998 -1 2 -1
1457 192 10 -0.66 1.0849911210175818 5.673252100519709 6.018971791419684 0 -1 1
4243 634 3 -0.04 2.146334403194227 10.952331477813468 6.064280195643306 0 1 0
4246 634 1 0.09 1.7205873257359388 10.294670991616359 6.821851376736063 0 1 0
4244 634 4 -0.65 3.4969052736371573 10.634619507544066 5.832983234104798 0 1 0
655 87 7 0.09 1.4151940808571215 10.336631134009421 2.626786721637076 0 1 2
232 31 7 0.09 0.6751653521532579 9.869898222457756 13.410473701310718 0 2 0
1460 192 6 0.09 0.815259494467623 7.64110002453174 5.349236145034066 0 -1 1
1677 220 5 0.43 8.919486541431967 6.399521342844616 6.599455160312325 0 -1 2
2920 413 1 0.09 5.973028024816508 4.925496720064896 7.794908658124838 -1 2 1
2852 402 4 -0.65 4.971344886801096 9.579025749337466 3.201888016684737 0 1 0
1975 259 1 0.09 1.2178459271730326 2.621435511792048 5.190154776445642 0 1 4
2621 363 1 0.09 11.064175523968938 5.588070703462003 14.416992397605034 0 1 1
4248 634 2 0.42 4.001677519435448 10.9157522764384 6.614961161530783 0 1 0
2851 402 3 -0.04 4.230299026279132 9.065313786316304 2.1023249378200886 0 1 0
882 117 1 0.09 10.962625776542009 1.5583434468561141 8.368714550445624 0 2 1
1976 259 1 0.09 2.8491455650390973 1.9141613833339135 5.71776421635559 0 1 4
2820 396 2 0.42 6.656059060061615 4.3573512760317445 1.793140421192221 -3 0 0
987 131 1 0.09 6.441562642677593 11.058586819321944 5.22429910340803 -1 -1 1
3901 577 3 -0.04 8.979902490291721 1.60971673083306 4.144430386653838 2 -2 2
1679 220 6 0.09 9.758844018743451 5.044741862832422 8.099771162471704 0 -1 2
1974 259 1 0.09 2.7645567035691765 3.2292569750912348 4.45614103822854 0 1 4
4245 634 1 0.09 1.4904596820532399 10.86303829050943 5.1360087441626 0 1 0
5669 871 1 0.09 3.415862239944752 8.460515695130514 9.245365683093087 -1 3 -1
1289 172 1 0.09 2.0009203844918835 6.0729985166872975 1.089297944750596 3 -2 -1
1100 146 4 -0.65 4.0360423761008635 1.2454745866366634 7.82270846772046 0 0 1
2919 413 1 0.09 4.587442694537564 3.7401849514470937 7.613492377175298 -1 2 1
3009 428 1 0.09 5.442604107163341 1.7797870632116555 3.818031511680133 3 2 -1
5962 920 1 0.09 5.756835280879271 1.0760455710375658 10.493053518336458 0 2 2
3905 577 1 0.09 8.445707668934894 1.6232536758138485 5.060814787005377 2 -2 2
1428 188 7 0.09 10.45325242180283 2.2463460515480556 1.1941096282027104 -1 1 3
5961 920 1 0.09 6.5171456997040655 2.028660989058465 11.84076069663948 0 2 2
1916 251 4 -0.65 10.049854796763706 8.787156864920952 12.50574176677925 -2 2 -1
2541 350 1 0.09 4.836472094226512 5.674834850907416 12.205467591342977 1 0 1
2544 350 2 0.42 5.077388274266142 7.349037714567168 10.984302567436552 1 0 1
4511 678 1 0.09 3.115163351615127 9.663269152498247 11.102000064950682 0 3 2
2855 402 1 0.09 3.3753811097373325 8.366928607921032 2.5096604662586075 0 1 0
3903 577 1 0.09 9.815328286088265 2.3665155036067436 4.190099307199768 2 -2 2
5668 871 1 0.09 1.7138108896897928 8.03398196417292 9.97741547120527 -1 3 -1
2540 350 4 -0.65 4.834674593533507 6.5853545930544195 10.380714611094852 1 0 1
5676 872 2 0.42 7.687419760820172 2.2991330738546605 10.084821784995098 0 1 0
6100 943 1 0.09 10.291678597544573 8.337394451181382 4.557218708613153 -1 0 -2
1104 146 2 0.42 4.698430010823635 1.7698739055218957 7.276694665855032 0 0 1
2542 350 1 0.09 3.2774526665702504 5.407988134803539 11.16566784135054 1 0 1
5985 924 1 0.09 1.1436794728114468 3.884343136373886 12.02391633405713 0 -2 -1
3180 456 2 0.42 9.175285227479774 4.344835259122706 1.281665431300866 1 2 1
1676 220 10 -0.66 9.81224239474483 5.980016473457145 6.300330601245748 0 -1 2
5675 872 1 0.09 8.720125002926737 3.4880596481621566 11.480721589177156 0 1 0
1917 251 1 0.09 10.614874150255343 6.864097750142863 11.851183052734807 -2 2 -1
1919 251 1 0.09 8.914769080606455 7.3943335110920545 11.494274586139076 -2 2 -1
2543 350 1 0.09 4.777481602328552 4.61248902987886 10.809500447632262 1 0 1
1856 243 1 0.09 6.405248760609038 9.986877392357401 14.22050474046567 3 0 2
1852 243 3 -0.04 6.950321336713789 10.774099967795339 13.6191010567164 3 0 2
4507 678 3 -0.04 3.83220543635168 9.819665649246566 11.920613187476393 0 3 2
2853 402 1 0.09 3.7760132899787995 9.838191012745954 1.4660879533062934 0 1 0
5674 872 1 0.09 7.28130147250718 4.55562708245105 11.405516889271176 0 1 0
1828 239 1 0.09 6.868629742241473 8.962955998171006 8.648041138955254 -1 1 1
3212 462 4 -0.65 10.75755046521805 9.77927692565995 9.788957733211463 0 0 -1
4510 678 1 0.09 4.022335337688977 10.906723147822952 11.865826222718642 0 3 2
1920 251 2 0.42 10.310112075935823 9.210878567775937 11.652362794330875 -2 2 -1
883 117 1 0.09 10.330994192118409 0.9953342625505772 9.895296145277056 0 2 1
5672 872 4 -0.65 7.80433878740943 3.2286396685660006 9.724167744500226 0 1 0
5671 872 3 -0.04 8.149699083167103 4.1213755193499235 10.86026551586581 0 1 0
2474 339 4 -0.65 7.625852813947834 4.726096673138535 14.508419032271625 -1 1 0
5673 872 1 0.09 8.708324177399211 5.020838320996051 10.445851258392729 0 1 0
1977 259 2 0.42 3.0051900620894973 1.0897715925274034 3.4866278060725975 0 1 4
1857 243 2 0.42 8.200476509353987 9.699505915813106 12.65855683287296 3 0 2
5670 871 2 0.42 3.461657816399854 6.4480145207641995 9.08562188164928 -1 3 -1
1918 251 1 0.09 9.300567117969463 6.930954702648121 13.14333084840731 -2 2 -1
1829 239 1 0.09 6.961785464550205 7.2518610247171 9.1479590861153 -1 1 1
4512 678 2 0.42 5.792862331714516 9.766117321883877 11.45474700754532 0 3 2
4509 678 1 0.09 3.5308886284274275 9.592206062404337 12.96182039009089 0 3 2
1915 251 3 -0.04 9.667717321632832 7.415520031786772 12.252168185110508 -2 2 -1
5665 871 3 -0.04 2.3948893121000996 8.067550595532119 9.06915162172154 -1 3 -1
4508 678 4 -0.65 5.0025788555807456 9.170046835882067 11.491331471248648 0 3 2
1825 239 3 -0.04 7.566053465665702 8.035805001049892 8.729278576946584 -1 1 1
5667 871 1 0.09 1.9181079839859012 8.755599250891624 8.321186968508819 -1 3 -1
1853 243 4 -0.65 7.455774164164702 10.275528669132216 12.374936454852486 3 0 2
3720 546 2 0.42 10.007101233786617 10.609564046421594 2.856403079991808 0 -1 0
5763 887 1 0.09 1.564265512735255 1.8646707899268877 10.117620077808628 1 0 1
2856 402 2 0.42 4.2884340851547895 9.802053032908146 3.893234642024973 0 1 0
3216 462 2 0.42 10.361000727008138 10.155398169012994 8.981006817692318 0 0 -1
2854 402 1 0.09 4.858263565623585 8.547106486709248 1.3587072445431434 0 1 0
1463 192 7 0.09 1.013129534876495 5.406684090505516 3.279809862414903 0 -1 1
1854 243 1 0.09 7.728442169254428 11.2138753740744 14.253509456551994 3 0 2
884 117 1 0.09 10.563813141089657 2.8499809277459516 9.741850513531565 0 2 1
234 31 7 0.09 0.6082925286653369 8.124989573717952 13.919629893082883 0 2 0
4911 745 1 0.09 7.880787757672116 10.953387754339794 7.526041025212787 1 -1 1
880 117 3 -0.04 10.94902951256995 1.8438828376844092 9.457248097687605 0 2 1
4914 745 2 0.42 10.7447668058207 11.106436431176903 6.806061524284322 1 -1 1
1461 192 9 -0.27 0.6449287263960204 6.367791647554487 3.689045733067406 0 -1 1
3272 472 4 -0.65 5.560100161502409 2.6148266067531685 14.626402656214166 -1 2 -1
1464 192 7 0.09 0.9107865744377848 7.227889727133988 3.0259322219340477 0 -1 1
3716 546 4 -0.65 10.78495856790826 11.237591714807797 2.981966532850942 0 -1 0
3011 428 1 0.09 6.584968655295189 0.8608588677225697 2.8166203397466543 3 2 -1
5766 887 2 0.42 3.5957977770845786 0.8961556964079165 9.547005813070225 1 0 1
1729 227 6 0.09 1.4951593238708363 9.615923337270376 18.950280980204045 -1 1 2
1726 227 8 0.05 0.9631727111684457 8.679945414888161 19.02551902957715 -1 1 2
501 67 2 0.42 9.671146166169521 7.53150358793804 17.61588175479095 0 1 0
1410 186 2 0.42 7.419160270420593 8.457959203515152 17.404274107155214 0 1 0
1406 186 4 -0.65 8.325489585188063 8.68431463678732 17.78347114418036 0 1 0
1897 249 8 0.05 3.951231820548346 9.247267317309667 16.11372935765023 0 1 1
1898 249 10 -0.66 5.073140796801917 9.090403353123785 16.986091230137674 0 1 1
1902 249 9 -0.27 3.7621300605383348 7.85744911829015 15.539605719520665 0 1 1
1899 249 5 0.43 5.305754118816791 9.985089111800216 17.30855626107915 0 1 1
2469 338 1 0.09 7.477005281538314 11.031386035184548 19.55674968243879 2 0 2
4464 670 2 0.42 8.287710811249767 10.437888038296727 24.049090757287324 -1 2 2
497 67 4 -0.65 10.376257974371708 6.88135626759744 17.517993403434318 0 1 0
1407 186 1 0.09 8.892874170800718 10.694384219401432 17.60727903223347 0 1 0
1734 227 7 0.09 2.002176821126225 8.246783428740496 20.79234545362914 -1 1 2
1730 227 6 0.09 1.467205942973706 7.93125906279648 18.31634368608533 -1 1 2
1674 219 7 0.09 10.819483105540877 2.013838473434701 19.060589844979916 1 0 2
2079 273 9 -0.27 2.936579053979316 7.443729365848011 28.402798085389833 -1 1 -2
1731 227 9 -0.27 0.9975279989340877 8.075613924164244 20.380704140490614 -1 1 2
1903 249 7 0.09 3.675260434909498 7.104106090699658 16.34625027132448 0 1 1
4259 636 1 0.09 2.0320133194018366 8.457290862372751 25.5639897962118 1 3 0
997 132 7 0.09 4.017996439946966 10.987342040824013 27.963972825882063 2 0 0
1900 249 6 0.09 4.240482819716397 9.963411654833118 15.339833639507052 0 1 1
1672 219 7 0.09 9.325732472112513 2.0452088228953347 18.000950778796724 1 0 2
5322 813 2 0.42 5.709887664365731 7.709286637155781 20.284533120814174 -1 0 -2
499 67 1 0.09 10.769206522668963 7.210531427753318 19.643366862821157 0 1 0
3274 472 1 0.09 5.0003801422211955 2.460853337119153 16.599790088404827 -1 2 -1
2476 339 1 0.09 8.42897833421138 5.227534065215957 16.415447266924485 -1 1 0
1732 227 7 0.09 0.914095229729183 6.909983963036288 20.36317514005839 -1 1 2
1666 219 8 0.05 11.028162229128835 3.1263682357686475 17.28210533800614 1 0 2
1169 155 7 0.09 8.801723178378442 1.2716606876612089 27.236564154673797 0 1 -1
2467 338 3 -0.04 7.5248980293804095 10.492761756152415 20.502762909379907 2 0 2
383 52 1 0.09 9.1135719267959 4.952815860604882 22.219257346860317 0 1 -1
1160 154 1 0.09 10.391252094016437 8.058115791181466 25.42639516848411 1 3 0
4958 753 4 -0.65 0.6376146048168837 3.1349648797826863 20.515899417105498 1 1 -1
1904 249 7 0.09 4.627617060567647 7.642318105430116 14.846588568029333 0 1 1
1405 186 3 -0.04 8.814507397079888 9.748410721821504 16.95811959694196 0 1 0
4374 655 2 0.42 9.697396189032712 5.401280921327581 25.020873107533408 1 0 2
3107 444 1 0.09 3.57476614026211 3.7057771479904082 28.191812864054203 2 -1 -1
1409 186 1 0.09 8.062012762845688 10.005382101828987 16.214101228944244 0 1 0
5319 813 1 0.09 5.315746886719031 6.0349923107343 18.562319480058097 -1 0 -2
6443 1000 1 0.09 7.251246629681236 3.9996349002449962 19.441900296409933 2 0 -1
3273 472 1 0.09 6.74595772277869 2.379805593764473 16.206633804933983 -1 2 -1
1408 186 1 0.09 9.823871003170947 9.539240627172951 16.50349155181727 0 1 0
4371 655 1 0.09 7.0610511442843915 5.124937424665764 25.106920397862243 1 0 2
6439 1000 3 -0.04 6.839897977435031 2.9819048799804433 19.4735835390449 2 0 -1
1505 198 1 0.09 5.006005112085521 3.3312885253571287 23.656245418348245 -2 1 -2
3271 472 3 -0.04 5.728564499076632 2.003784135373448 15.893746605608131 -1 2 -1
2475 339 1 0.09 6.62647923992288 4.83188556361441 16.228079029910802 -1 1 0
889 118 1 0.09 10.899803336218007 11.016167012229134 24.18950408944088 -1 0 2
3387 491 1 0.09 0.9404305288623841 10.458697501990878 27.896554799436426 2 0 -2
2471 338 1 0.09 8.279221077599198 9.709685012162861 20.44149900550575 2 0 2
1502 198 4 -0.65 5.975208370114028 4.582248189222051 22.11756036127834 -2 1 -2
4957 753 3 -0.04 0.7625700007795411 4.258284744054872 21.381512078935355 1 1 -1
381 52 1 0.09 10.742753929548238 4.980931690078919 21.395732251016415 0 1 -1
382 52 1 0.09 10.298959625076792 3.4645163787072812 22.116511337173872 0 1 -1
1673 219 7 0.09 9.788427886616152 3.4961421291899613 19.094433987181716 1 0 2
5321 813 1 0.09 3.7621403085924223 6.519193484627814 19.400313615080723 -1 0 -2
5320 813 1 0.09 4.556609971839337 5.113895389994565 19.875549729592066 -1 0 -2
4960 753 1 0.09 1.8146695207929775 4.605069694947046 21.245473059360894 1 1 -1
5179 790 3 -0.04 3.760326864879432 11.054736089799473 22.867101604428758 0 -2 0
4940 750 4 -0.65 10.0477119906706 3.872553376827208 28.289468333020952 -1 0 -1
1671 219 9 -0.27 10.163662024694819 2.6462002286999438 18.43459573064726 1 0 2
5318 813 4 -0.65 5.669021750013149 6.771069254104195 20.47572296269198 -1 0 -2
534 72 1 0.09 7.968404196321589 7.3900475273507755 23.621400527815442 -1 -2 0
5317 813 3 -0.04 4.763583663262056 6.085871942054562 19.516253954378087 -1 0 -2
1751 229 7 0.09 8.434381096852452 7.101829508314577 28.1046918694587 0 0 0
2473 339 3 -0.04 7.535738394575472 5.357044924621625 15.793503069690509 -1 1 0
888 118 1 0.09 11.068703098148243 10.510561395813442 22.517933135037563 -1 0 2
4257 636 1 0.09 2.666666101928087 7.939197141383779 23.998827526255113 1 3 0
1901 249 6 0.09 3.021794411362815 9.570837216113365 16.545515492987903 0 1 1
3106 444 1 0.09 3.7172008804460335 3.4743927005893394 26.355293073850103 2 -1 -1
5183 790 1 0.09 3.8509982560219553 9.891681598207294 22.91940500697554 0 -2 0
4258 636 1 0.09 0.9671958184924878 8.541364647576339 23.99040858294896 1 3 0
2081 273 7 0.09 4.095745091327759 7.266967229359315 28.29914593114655 -1 1 -2
6441 1000 1 0.09 7.190187058576699 2.269114283928482 18.68094903328624 2 0 -1
4373 655 1 0.09 7.729727153680592 3.490557303832822 25.474020989117687 1 0 2
3105 444 1 0.09 4.990525864605105 2.8176987651541197 27.537605667912512 2 -1 -1
6442 1000 1 0.09 5.750688657671103 3.0158461893783253 19.3811614339439 2 0 -1
4944 750 2 0.42 9.428144978294085 4.10957003083315 27.577569870900806 -1 0 -1
276 37 1 0.09 4.07334522612676 11.162502096332252 18.914478025104327 1 2 1
4256 636 4 -0.65 1.2695913006504629 6.619052269784781 24.738373726373478 1 3 0
4372 655 1 0.09 8.197593998529847 4.294831573217476 23.966940574870016 1 0 2
1506 198 2 0.42 5.774620644135996 5.331055666722803 21.516927352187338 -2 1 -2
4370 655 4 -0.65 8.998269029737793 5.256443779344396 25.721334864390837 1 0 2
1503 198 1 0.09 4.956708762851721 5.12888660934525 23.851879950021114 -2 1 -2
4460 670 4 -0.65 8.0507770457289 11.04237938190831 24.76405042459348 -1 2 2
380 52 4 -0.65 10.749710421874227 4.980377691050439 23.489813072096688 0 1 -1
1501 198 3 -0.04 4.977396435231407 4.311155331228661 23.12753304711316 -2 1 -2
1504 198 1 0.09 3.97447965490719 4.247110263713003 22.690214744249413 -2 1 -2
1744 229 8 0.05 7.722812775594612 8.730344019336428 26.80445282758248 0 0 0
2477 339 1 0.09 7.309749789527699 6.411184080650483 15.592015458243614 -1 1 0
2082 273 7 0.09 2.7106905944513975 8.536244539339997 28.17566573665537 -1 1 -2
537 72 2 0.42 7.938695154531042 9.32625387268593 22.264427493745266 -1 -2 0
3108 444 2 0.42 3.526218257120118 1.1197664102484663 26.8951093289929 2 -1 -1
3104 444 4 -0.65 3.115317390465619 1.8106054718448097 27.423432503260656 2 -1 -1
1669 219 6 0.09 10.397683466538721 3.729822978797161 16.63384275230578 1 0 2
1747 229 6 0.09 7.944879114205094 8.17585380521722 25.83242067592952 0 0 0
1748 229 6 0.09 6.7672468920353 9.305148142754135 26.745136618178876 0 0 0
1165 155 6 0.09 10.814948026695074 0.9523303189505631 28.00186236816948 0 1 -1
6444 1000 2 0.42 6.574004047830129 2.876010163821811 21.340766946896952 2 0 -1
1746 229 5 0.43 8.607665042261578 10.356094179061712 26.47210184420066 0 0 0
1745 229 10 -0.66 8.782026866847904 9.66287237410301 27.11757099636295 0 0 0
1752 229 7 0.09 6.754707805207031 6.907937765730026 27.622591142494834 0 0 0
4255 636 3 -0.04 1.714612753914585 7.964645166449664 24.582424512397676 1 3 0
533 72 4 -0.65 8.762250791834413 9.151126565182178 22.7507227665994 -1 -2 0
379 52 3 -0.04 10.17900209800372 4.59922337665771 22.25187930157717 0 1 -1
1749 229 9 -0.27 7.498703121635412 7.640492844105017 27.944427169491608 0 0 0
2468 338 4 -0.65 6.372749604025644 9.763995554258013 20.952183930055295 2 0 2
532 72 3 -0.04 8.715103756219255 7.724614207821454 22.878605436815132 -1 -2 0
3385 491 3 -0.04 0.5753592710842668 11.080939271388955 27.07925417016083 2 0 -2
2080 273 7 0.09 2.5219863930469426 6.711706577331991 27.628064700625735 -1 1 -2
4369 655 3 -0.04 7.932981602014297 4.516072793376489 25.011755310773566 1 0 2
6440 1000 4 -0.65 7.126076908446596 2.3724117722543996 20.698262209985884 2 0 -1
1815 237 2 0.42 1.5580514802076153 2.230781458708554 28.19933566801703 1 0 0
2472 338 2 0.42 5.532338064260429 10.364089975252282 21.020219357221592 2 0 2
536 72 1 0.09 9.711738721936811 7.317214964486915 23.258127547197763 -1 -2 0
535 72 1 0.09 8.588690797570857 7.284149160086933 21.81526209280774 -1 -2 0
3103 444 3 -0.04 3.9137446798324063 2.993670233317504 27.35960784074737 2 -1 -1
4205 627 1 0.09 0.7907539149805022 1.4946042664942085 17.732295203307483 1 4 -1
1905 249 7 0.09 2.804375625153444 8.066020810995136 14.980752533561233 0 1 1
1212 161 7 0.09 10.971583627066702 11.272910314812727 18.522524187503677 0 0 -1
4959 753 1 0.09 0.6184469748406819 3.8788424119635883 22.409779406574554 1 1 -1
2470 338 1 0.09 7.825746038138531 11.235018618105256 21.23055568898831 2 0 2
5182 790 1 0.09 2.6435242410924173 11.255460756040334 22.875700599773765 0 -2 0
3456 502 2 0.42 4.6977080422573 8.236846283945356 32.56015295166527 1 0 1
3451 502 3 -0.04 5.041501993989445 9.761547203666735 31.478597398500305 1 0 1
3735 549 1 0.09 6.917561829897125 8.52869079479586 33.66273556655848 2 -2 -1
3452 502 4 -0.65 4.888581938467317 9.144260581718521 32.740648268854116 1 0 1
2414 329 4 -0.65 4.06178374412899 6.457985718895601 32.42747439626358 -1 2 2
3455 502 1 0.09 6.073210306937772 9.484991390266115 31.24916546559851 1 0 1
2413 329 3 -0.04 2.9148223311790202 6.382347447884337 33.31031107899042 -1 2 2
2078 273 6 0.09 2.9592212406137035 7.58547341782889 30.47959353349861 -1 1 -2
2415 329 1 0.09 2.1081971903583114 7.007684523590208 32.96514362110162 -1 2 2
5036 766 4 -0.65 5.8359280940535685 4.117398887785436 33.30905815671457 0 1 -1
3418 496 1 0.09 7.892047914071194 2.0250936675256197 32.26822892105838 0 3 0
4810 728 1 0.09 9.38877696206369 1.632792568201861 33.56869302888565 0 0 1
5622 863 2 0.42 11.050753814592898 1.3057803028494321 31.491846148986586 2 1 -1
5860 903 1 0.09 4.087286468213723 9.269227614993211 40.17002949868484 1 -2 2
3453 502 1 0.09 4.350404048854138 9.444590587249943 30.747832233983008 1 0 1
3733 549 3 -0.04 7.518773856794817 8.061380440604264 34.509818307072265 2 -2 -1
581 78 4 -0.65 2.680049134403871 2.2516841531811194 37.31953269611083 -2 2 1
3420 496 2 0.42 9.531889471593573 2.661263977252159 29.930582161896616 0 3 0
6017 929 1 0.09 11.059578816437703 7.38997152980825 40.92102731073807 1 -1 0
3237 466 1 0.09 3.742412804229584 3.6556136192385664 30.330759056980856 1 -1 -1
3607 528 3 -0.04 1.920263539405959 1.3367079740852148 40.6456725349792 1 1 0
4990 758 1 0.09 10.281739550610776 7.399333821394722 29.71220094311948 1 0 1
580 78 3 -0.04 1.543629698517933 2.5932028135412137 36.50429281797456 -2 2 1
2074 273 8 0.05 2.396893226150505 6.996667403538742 29.681803191140148 -1 1 -2
3736 549 1 0.09 7.990925440350945 7.080631152730163 34.173915529300885 2 -2 -1
3416 496 4 -0.65 9.348160130226859 2.2147917372176655 30.8037981178225 0 3 0
2032 267 3 -0.04 9.17302461351462 9.28080697106965 41.995112047644795 1 1 2
2758 386 1 0.09 6.489946976009693 10.890388128245721 35.272054351148995 2 -3 0
4075 606 3 -0.04 9.931092083373082 10.792778636291292 32.799932401289325 1 0 0
3737 549 1 0.09 6.72264247685408 7.614085745249026 35.186796596184536 2 -2 -1
3236 466 4 -0.65 3.7100994437439208 2.7730847047041354 32.12888234341516 1 -1 -1
2077 273 6 0.09 2.5319931621393827 5.899736716308754 29.950011750017744 -1 1 -2
3238 466 1 0.09 2.6715091876644 2.1658862248896478 30.23623729148955 1 -1 -1
3419 496 1 0.09 8.45699263351456 3.711076926947985 32.07014527486277 0 3 0
3240 466 2 0.42 3.2629102985940706 1.9797258443688532 32.47466607177102 1 -1 -1
2035 267 1 0.09 10.20687449620028 9.52906778726515 41.9890433995736 1 1 2
3712 545 1 0.09 2.778585034230025 9.33247838577352 35.5544095008904 0 -1 1
3415 496 3 -0.04 8.204298830121541 2.8144869236816272 31.46782460264674 0 3 0
5040 766 2 0.42 5.223057019900621 3.421993581669603 33.00409534342566 0 1 -1
3235 466 3 -0.04 3.1043153287428833 3.042760158721202 30.93482870141396 1 -1 -1
4811 728 1 0.09 8.814863949455859 3.019149474818544 34.68471306290341 0 0 1
6014 929 4 -0.65 11.001707988967922 5.34486011281324 41.45827909415986 1 -1 0
2418 329 2 0.42 4.698671321631744 5.783692946322977 32.680459731466456 -1 2 2
5035 766 3 -0.04 5.971077081850035 4.082766626271686 34.71043816820365 0 1 -1
5037 766 1 0.09 6.750568203846685 4.905664619133992 35.06187875354905 0 1 -1
5039 766 1 0.09 6.3625832381378915 3.117133384114337 35.110874691545845 0 1 -1
6016 929 1 0.09 11.032080426423587 6.195380514632498 39.56230571067195 1 -1 0
5038 766 1 0.09 5.066516639548864 4.330518204544319 35.26484226467845 0 1 -1
3239 466 1 0.09 2.267238031403291 3.7299321081211563 31.046734092936944 1 -1 -1
584 78 1 0.09 1.6592318137327302 2.242233917024816 35.43645835700579 -2 2 1
5477 839 1 0.09 10.260517479184623 6.857994997713953 35.67511549159799 1 1 -1
3417 496 1 0.09 7.215647439392104 3.0858649171773207 30.912609479804388 0 3 0
4988 758 4 -0.65 10.511382621387801 9.433388933751393 29.34723144952865 1 0 1
2034 267 1 0.09 8.563076807059685 9.609061919158487 41.10697045841631 1 1 2
2417 329 1 0.09 3.1465115054525694 6.649056748815 34.37850846280733 -1 2 2
516 69 7 0.09 11.015898588048932 2.156224239949132 37.27111969250062 1 1 4
3454 502 1 0.09 5.029188762223133 10.854227334686128 31.642421410575835 1 0 1
585 78 2 0.42 2.5007975235234303 2.5264565570055755 38.23092741722104 -2 2 1
4987 758 3 -0.04 10.9440392648331 8.274032042740481 29.932363557936192 1 0 1
3611 528 1 0.09 2.514286337100462 1.0081687850452252 39.70768675541025 1 1 0
3711 545 1 0.09 1.6549991426029256 10.527410781109321 36.39931862645108 0 -1 1
510 69 5 0.43 8.091841240189588 1.2797159783948986 38.75863234527152 1 1 4
152 21 6 0.09 8.989813739757917 6.258570937953302 37.71326033921416 0 -3 -1
3709 545 3 -0.04 1.8315172435803704 9.477243977873815 36.13922935121698 0 -1 1
1750 229 7 0.09 7.230366872268612 8.069255240793343 28.89234240515216 0 0 0
2755 386 3 -0.04 5.445369594819564 10.887873819488432 35.513381553547305 2 -3 0
5478 839 2 0.42 11.12544796368789 8.114363552727573 33.93302941364834 1 1 -1
3608 528 4 -0.65 1.0430431722845601 2.425806320567194 40.27490298097098 1 1 0
4209 628 1 0.09 1.230572970268419 10.161539192824366 33.57733655144327 1 1 3
2760 386 2 0.42 4.76653665876686 10.95202239348191 33.673908672829796 2 -3 0
3150 451 2 0.42 6.007894094585554 2.7410081307736514 40.03282377337629 -1 0 -3
3145 451 3 -0.04 6.490000042700256 1.3163895220421438 41.23797487666886 -1 0 -3
3609 528 1 0.09 2.6708235267973404 1.753101299737343 41.33106998409072 1 1 0
5713 879 3 -0.04 4.33140679607687 4.8444573529917685 39.408390956618206 2 0 -2
5858 903 4 -0.65 4.863219583750416 8.125379226128732 38.46034868488452 1 -2 2
4076 606 4 -0.65 10.557936360640108 10.20404966311973 33.91641982877225 1 0 0
2075 273 10 -0.66 1.013194528872814 7.2375407190945005 29.642919992072258 -1 1 -2
4809 728 1 0.09 10.504741813916786 2.155209120175311 34.92465656873229 0 0 1
4210 628 1 0.09 1.935511366894322 10.438029716466456 31.83910320739817 1 1 3
5861 903 1 0.09 5.233582309277884 7.920595283176734 40.476719107276296 1 -2 2
3738 549 2 0.42 9.01296874743631 9.440669522810847 34.62838658016881 2 -2 -1
3734 549 4 -0.65 8.429124196462514 8.943038450200017 35.28927026315726 2 -2 -1
4812 728 2 0.42 8.890332045272284 1.1627378366199368 36.37424921641855 0 0 1
2036 267 1 0.09 9.119826531139969 8.14774352507794 41.934887301477175 1 1 2
509 69 10 -0.66 8.924001536054703 1.302046130900331 38.17709595580226 1 1 4
3713 545 1 0.09 0.9856683482106172 9.042685696588437 35.5559301069258 0 -1 1
5857 903 3 -0.04 5.02760068853181 8.74750917124991 39.74054617677015 1 -2 2
2416 329 1 0.09 2.606567773608507 5.327361720757686 33.21792531583898 -1 2 2
5714 879 4 -0.65 4.524670155186881 3.8347492744970877 40.46774925600461 2 0 -2
150 21 5 0.43 8.159520623392961 8.270960415547105 37.044744759894016 0 -3 -1
1288 172 1 0.09 2.487741608916857 6.579513535504022 40.80215457283997 3 -2 -2
5715 879 1 0.09 3.40060867678808 4.651565709498666 38.79130242880392 2 0 -2
5859 903 1 0.09 5.863808130960355 9.486916164507466 39.69086079186354 1 -2 2
512 69 6 0.09 9.762328340454221 2.653413134781462 39.42731286552912 1 1 4
5862 903 2 0.42 5.763943710670695 7.846989866973164 38.09356479094559 1 -2 2
1285 172 3 -0.04 1.718856608285377 6.0173879414936025 41.352471718360775 3 -2 -2
5286 807 2 0.42 1.2555740588020676 10.458794270642054 38.31443160179542 2 0 -3
149 21 10 -0.66 7.7083579334533665 7.90343033172843 37.841311868669166 0 -3 -1
4078 606 1 0.09 10.59041190752238 10.394812706512704 31.961422780969905 1 0 0
5718 879 2 0.42 4.828933410167825 4.319028145272695 41.29057688445434 2 0 -2
508 69 8 0.05 9.975416573343637 1.663103995664235 39.07367838567096 1 1 4
3147 451 1 0.09 7.07990654100649 1.8680466175174637 42.05843551977708 -1 0 -3
4079 606 1 0.09 8.863758295412694 10.49154050016384 32.577953486307976 1 0 0
3710 545 4 -0.65 1.947450235613839 8.673528398502896 37.3131453230919 0 -1 1
3714 545 2 0.42 2.7935262728768655 8.734908332199502 37.74285459658897 0 -1 1
155 21 7 0.09 8.569575962826349 5.3207535312991245 39.87121069538297 0 -3 -1
1287 172 1 0.09 1.7437654153344233 4.972067119705288 41.11550460952954 3 -2 -2
148 21 8 0.05 8.585979114599631 6.908318314946786 38.45025975626798 0 -3 -1
4808 728 4 -0.65 8.698100029735253 1.0043849051453793 35.436978253230706 0 0 1