LAMMPS data file via write_data, version 29 Aug 2024, timestep = 16209956, units = real

6687 atoms
10 atom types
5687 bonds
8 bond types
8374 angles
10 angle types
5519 dihedrals
7 dihedral types

0.3275387326269552 43.27911126736474 xlo xhi
0.6654740279446862 42.87622597203264 ylo yhi
0.7609787011491811 42.481831298853955 zlo zhi

Masses

1 1.008
2 1.008
3 12.011
4 15.999
5 1.008
6 1.008
7 1.008
8 12.011
9 12.011
10 15.999

Pair Coeffs # lj/charmmfsw/coul/long

1 0.024 2.38761 0.024 2.38761
2 0.046 0.400014 0.046 0.400014
3 0.078 3.65268 0.01 3.38542
4 0.1921 3.14487 0.1921 3.14487
5 0.046 0.400014 0.046 0.400014
6 0.035 2.38761 0.035 2.38761
7 0.024 2.38761 0.024 2.38761
8 0.056 3.58141 0.01 3.38542
9 0.078 3.6527 0.01 3.38542
10 0.1921 3.1449 0.1921 3.1449

Bond Coeffs # harmonic

1 322 1.111
2 428 1.42
3 545 0.96
4 222.5 1.528
5 309 1.111
6 322 1.111
7 428 1.42
8 545 0.96

Angle Coeffs # charmm

1 57.5 106 0 0
2 35.5 108.4 5.4 1.802
3 45.9 108.89 0 0
4 50 106 0 0
5 34.6 110.1 22.53 2.179
6 35.5 109 5.4 1.802
7 34.6 110.1 22.53 2.179
8 35.5 108.4 5.4 1.802
9 75.7 110.1 0 0
10 45.9 108.89 0 0

Dihedral Coeffs # charmmfsw

1 0.18 3 0 1
2 0.24 3 0 1
3 0.14 2 0 0
4 1.13 1 0 0
5 0.16 3 0 1
6 0.18 3 0 1
7 0.16 3 0 1

Atoms # full

989 131 4 -0.65 4.2762296850964905 3.097036970977311 3.322636417904065 -2 1 2
988 131 3 -0.04 4.880765924219591 3.793658818922933 4.416472510625779 -2 1 2
993 131 2 0.42 3.3339378957806827 3.1022671378157796 3.596853731513869 -2 1 2
6191 918 4 -0.65 9.48210211474824 7.4946079336824445 2.80955687822351 0 -1 4
5607 820 2 0.42 1.4954025981095216 3.064484735248422 5.283604607541291 1 0 -3
5603 820 4 -0.65 1.8080341009110683 3.5526236055960063 4.535155689288544 1 0 -3
4340 609 1 0.09 1.646956776126454 5.146330871438722 12.947901880187766 2 5 -1
751 98 7 0.09 4.0113465356394595 6.820548622706025 5.920668091026173 1 0 3
2480 328 10 -0.66 9.466069529935481 5.429697729261788 7.32115388215819 -2 -1 -2
5602 820 3 -0.04 1.7361948473092752 4.939576279484015 4.852904048260593 1 0 -3
5604 820 1 0.09 1.965679670866955 5.6569082189896305 4.012010169092777 1 0 -3
2893 384 8 0.05 0.5870973619718313 1.2039180245618555 14.357076574653238 1 4 0
5606 820 1 0.09 2.5763852313276696 5.1128390216584165 5.598052452079024 1 0 -3
991 131 1 0.09 4.73922947011543 3.151546339058331 5.334962608818832 -2 1 2
6195 918 2 0.42 9.435922597615079 7.6063693248964 1.8333618115879655 0 -1 4
337 44 7 0.09 10.363433474946465 4.519611063702487 13.232289729419245 -2 0 1
282 38 9 -0.27 10.143706009822166 10.870355222621242 6.054078955121452 -3 1 1
3589 484 1 0.09 7.625991444576783 2.4173505415685437 7.016177339036152 1 -1 1
990 131 1 0.09 4.492725065735518 4.7853338491088895 4.595625185277307 -2 1 2
992 131 1 0.09 5.999531852313177 3.8613945248371473 4.373732044004036 -2 1 2
750 98 9 -0.27 4.978509629784443 7.262360106847719 5.556951719737387 1 0 3
753 98 7 0.09 4.81927971690235 7.736635153970666 4.5821583424813275 1 0 3
6192 918 1 0.09 7.528272517369174 8.155739319836545 2.383956983670405 0 -1 4
4762 680 3 -0.04 0.5737608827216971 10.994300008510985 11.070364140051117 1 -1 3
6194 918 1 0.09 8.199442428199376 8.52538385071701 4.048166341575511 0 -1 4
752 98 7 0.09 5.7037561126963015 6.460323293519791 5.380288390217983 1 0 3
745 98 8 0.05 5.453591409876325 8.375244790495959 6.534593300327593 1 0 3
3591 484 2 0.42 7.524298943183318 4.595229556145693 7.395570411797797 1 -1 1
746 98 10 -0.66 6.696554240633841 8.85174389431204 6.006235761501924 1 0 3
3587 484 4 -0.65 6.704243446358516 4.247419150545211 7.1183002148360615 1 -1 1
2479 328 8 0.05 8.986460825793344 6.56644398851586 8.137480852069185 -2 -1 -2
749 98 6 0.09 5.527641601568829 7.852714103795282 7.5241015082043985 1 0 3
3590 484 1 0.09 6.637514428037222 2.712417995578494 8.519565057509048 1 -1 1
3588 484 1 0.09 5.860340160237938 2.284745292625065 7.05217470270475 1 -1 1
6190 918 3 -0.04 8.186779620759868 7.744492455456888 3.2591711252915223 0 -1 4
6193 918 1 0.09 7.615295288737599 6.793467731600577 3.560409768553426 0 -1 4
3586 484 3 -0.04 6.686159888680591 2.8402714233447766 7.416034125083744 1 -1 1
5337 775 2 0.42 7.505132195642567 0.8217519336616091 12.636627483280478 4 1 -3
748 98 6 0.09 4.628357213777318 9.141584483350714 6.605604979938974 1 0 3
4785 683 2 0.42 4.149818421389126 5.908725251087096 1.405473400821104 2 -2 0
2483 328 6 0.09 9.476303546383498 7.497747233380281 7.693620552505878 -2 -1 -2
409 53 6 0.09 3.5699442857467307 9.910852457168978 4.0895164257062895 0 -2 2
5574 815 1 0.09 2.9289374018272714 7.644410850772984 7.630403326724415 2 1 1
2481 328 5 0.43 9.899843687617286 5.795427723062648 6.528477669753716 -2 -1 -2
6295 935 1 0.09 7.430273539880634 2.6086460446157007 1.1273546895988455 -1 2 -1
4339 609 1 0.09 3.0735672654971142 5.455801730751077 14.002719415120692 2 5 -1
4564 647 3 -0.04 4.673432130244463 1.249448323856118 11.30283784584502 1 0 1
2484 328 9 -0.27 9.195931766730258 6.298294078403834 9.555908854636069 -2 -1 -2
412 53 7 0.09 2.722495254778769 7.628316812781399 3.3298852411019473 0 -2 2
2486 328 7 0.09 8.631454997509545 7.018710789112424 10.20346752424319 -2 -1 -2
410 53 6 0.09 3.4924214774530355 10.006867298301405 2.363144790519945 0 -2 2
6634 992 3 -0.04 1.7250288953124246 0.6997652969825716 1.850577075280583 -1 3 0
747 98 5 0.43 7.163420786845916 9.241380339304573 6.77247952475146 1 0 3
5664 830 1 0.09 7.889624065970197 9.590549228014234 10.279671361313097 4 -3 2
3015 399 2 0.42 10.64834145923421 1.7540601794167812 2.08574806549286 -3 0 -1
6297 935 2 0.42 5.112702450029559 2.8412082898948032 1.635384481296923 -1 2 -1
2332 309 3 -0.04 3.8505520238408684 8.661683723572853 13.254593906785152 3 0 3
2633 348 6 0.09 7.17865751590541 10.139539640889241 13.623992714241467 -1 1 1
1867 247 1 0.09 0.8106346238135053 8.565598013206651 14.108398716296852 2 1 1
3417 455 2 0.42 6.130537444452989 10.935902481095646 5.067240865028255 1 2 1
4045 560 1 0.09 0.4205722029999366 7.307299498360754 9.862020088089071 0 2 4
5662 830 3 -0.04 7.1200431181086765 10.020525362244344 9.663750232400814 4 -3 2
414 53 7 0.09 1.4723697765852408 8.669597342944993 4.178139205056025 0 -2 2
406 53 8 0.05 2.848176756878209 9.874650231693277 3.3116318691399136 0 -2 2
4338 609 1 0.09 1.8119920720533382 4.237332792322436 14.491373142754817 2 5 -1
4767 680 2 0.42 1.8453527695010958 10.284677720512208 9.889790955016561 1 -1 3
5359 779 1 0.09 1.8828087675683163 2.9324292103799854 10.43494898591546 1 1 3
408 53 5 0.43 1.5407662439298786 11.020761272676925 2.4875243124369675 0 -2 2
4341 609 2 0.42 3.759454386626892 3.3835733656910376 13.41494686565709 2 5 -1
4314 605 1 0.09 8.940965865580038 1.1161794840643553 5.661597590673598 1 0 3
563 73 7 0.09 1.9272124016030836 0.8201110091317194 5.632370835800739 1 2 2
2895 384 5 0.43 1.4771269589008682 2.106295128947176 12.97702590449542 1 4 0
5333 775 4 -0.65 8.09441177190342 1.5550476366383799 12.907295982786549 4 1 -3
5576 815 1 0.09 1.7758941062417606 8.143978334114799 6.277278487846453 2 1 1
2333 309 4 -0.65 4.707536577501015 7.857640153267557 14.007984656602394 3 0 3
5575 815 1 0.09 1.0890878147447514 7.275608642263528 7.794107525540787 2 1 1
5573 815 4 -0.65 1.6984418158068801 9.22252615528277 8.058455566459344 2 1 1
4313 605 4 -0.65 9.725432296220223 0.8198528437583747 3.721686681408488 1 0 3
2285 302 10 -0.66 10.934465380199216 6.51533595715035 4.907795762329089 -1 1 -1
5666 830 1 0.09 6.289011849639508 9.226043126374355 9.621767585415265 4 -3 2
411 53 9 -0.27 2.09290281181852 8.562299257706359 3.3324114057151997 0 -2 2
6335 942 4 -0.65 10.81846032541619 9.890242033872845 11.221244976639161 1 6 -3
5336 775 1 0.09 9.245815211066242 2.9372469121674296 12.079136279825473 4 1 -3
2482 328 6 0.09 7.965630261657112 6.7931457206564465 7.923794132070358 -2 -1 -2
2334 309 1 0.09 2.9378551630867418 8.096803323005576 13.032887567133198 3 0 3
6638 992 1 0.09 1.3733267812777252 1.6824956290836188 1.5670276749693506 -1 3 0
5577 815 2 0.42 1.9284541364560566 9.874153141942694 7.385313739763819 2 1 1
5358 779 1 0.09 3.1005512073965775 4.023457502741978 9.757038619586485 1 1 3
5357 779 4 -0.65 1.286372062890134 3.9169590468017996 8.824534015218722 1 1 3
5332 775 3 -0.04 8.565452784619357 2.1482723938439467 11.698652027378486 4 1 -3
5572 815 3 -0.04 1.8339233384092366 8.004756696419253 7.415283401863491 2 1 1
2629 348 8 0.05 7.597884739599152 9.553154005934989 14.493921402777833 -1 1 1
5360 779 1 0.09 2.7918104332675644 2.465565761056803 8.878805036647494 1 1 3
2337 309 2 0.42 5.503623116486784 8.421940981689325 14.201813696843143 3 0 3
407 53 10 -0.66 1.9126702803680529 10.931784231474158 3.3647107444353455 0 -2 2
1868 247 1 0.09 0.6965952598124485 10.308633976383309 13.875650234279338 2 1 1
4568 647 1 0.09 4.826414423334333 2.317181802861911 11.61381034300292 1 0 1
2487 328 7 0.09 10.240243686423375 6.534574282524018 9.833587409746608 -2 -1 -2
4336 609 3 -0.04 2.3566734760959394 4.673197513873046 13.643305011820068 2 5 -1
4337 609 4 -0.65 2.956620465689516 3.5649568171381296 12.917530943680587 2 5 -1
5356 779 3 -0.04 2.339077529967098 3.2926224925884915 9.529153701357062 1 1 3
5335 775 1 0.09 7.714051486254121 2.5793962684615153 11.057391749520095 4 1 -3
5334 775 1 0.09 9.153879392178123 1.431883419027089 11.059817664130863 4 1 -3
2894 384 10 -0.66 0.5274727358460142 1.8625692796419782 13.092638824072875 1 4 0
4312 605 3 -0.04 8.61560242306542 0.966780256282121 4.585026734812985 1 0 3
6294 935 1 0.09 6.765383793505417 4.196872935005361 1.2106303396202565 -1 2 -1
2485 328 7 0.09 8.807932710351219 5.297871170709871 9.671438898509725 -2 -1 -2
283 38 7 0.09 9.76354978747049 10.523115872505137 5.069604942609559 -3 1 1
4315 605 1 0.09 7.722914187004518 1.5408775908185923 4.033723606079461 1 0 3
2636 348 7 0.09 9.015056858200369 7.818375779478118 13.958442007830351 -1 1 1
2335 309 1 0.09 3.5444731031675323 9.689003100700655 13.728090526984221 3 0 3
2634 348 9 -0.27 7.949900138698592 8.103026091516238 14.089535903696234 -1 1 1
4763 680 4 -0.65 1.8925232858898724 10.55513948495943 10.77586790797802 1 -1 3
5663 830 4 -0.65 7.609523807576246 10.323172321275477 8.32582272473357 4 -3 2
2336 309 1 0.09 4.316153003060915 8.854047786783394 12.306748348830794 3 0 3
413 53 7 0.09 1.3370221625847034 8.53383009722216 2.512198697401727 0 -2 2
5667 830 2 0.42 8.450540495607253 10.82953103770543 8.494516060891005 4 -3 2
2286 302 5 0.43 10.422224004701288 6.836290101760131 4.104225391955 -1 1 -1
5361 779 2 0.42 0.897687031671992 3.260077540650279 8.222551078088099 1 1 3
5665 830 1 0.09 6.627908467957091 10.937802622476568 10.100945803483473 4 -3 2
285 38 7 0.09 9.549591656632584 10.303725335228025 6.848232397421632 -3 1 1
4567 647 1 0.09 3.631693975063735 0.996811754341421 11.57140213228296 1 0 1
2637 348 7 0.09 7.298195217532264 7.808395895823702 13.233589876424789 -1 1 1
4566 647 1 0.09 4.757856025291765 1.1897018475246879 10.157921846954066 1 0 1
5605 820 1 0.09 0.7218788872558595 5.10061788367584 5.3004937578844284 1 0 -3
6339 942 2 0.42 11.01941279774004 10.609151610511303 11.875963328998765 1 6 -3
1 1 3 -0.04 9.94523253207106 9.107661155039246 17.442988848357285 -1 -3 -1
2 1 4 -0.65 8.859232576292564 9.985067521156259 17.823041271385417 -1 -3 -1
4 1 1 0.09 9.512340101242069 8.075830816435658 17.487706953573856 -1 -3 -1
6 1 2 0.42 9.224281384222092 10.855770910753742 18.093039306785798 -1 -3 -1
6583 983 1 0.09 3.6090729104269177 6.591049975512493 27.03176494542715 -2 0 2
4331 608 4 -0.65 7.7586245955313204 1.8011872717770783 21.622444204724335 1 1 -2
1842 244 5 0.43 8.823176551106503 1.827554523399829 14.856492823111191 -1 2 0
274 37 7 0.09 10.322360265954298 4.596141349228225 16.001017408622257 -3 1 2
3706 504 3 -0.04 3.2627878198845495 10.726543355197729 16.30251933039795 -1 1 1
5077 732 1 0.09 4.265156435915939 2.7639461175985724 18.113240709368295 1 0 -3
2273 300 4 -0.65 9.58421228150064 8.069992819601655 26.64344223119211 -1 0 -3
5078 732 1 0.09 3.215784921621421 2.197267577899665 16.651787220587565 1 0 -3
3485 467 4 -0.65 7.229186956269553 6.2428755076837446 21.257086739840393 -1 -1 -3
2854 379 8 0.05 1.0445258278820706 5.840881684090204 17.028814626134654 2 0 3
4730 674 1 0.09 0.5786678942124932 9.228096601667113 22.287580252543478 2 -2 -2
4330 608 3 -0.04 7.732866582935295 2.8831356536946955 20.704395581319023 1 1 -2
4332 608 1 0.09 8.654784569048866 2.8690141710174704 20.090355085039167 1 1 -2
4333 608 1 0.09 6.756900057560333 2.8319663820301693 20.112121976697292 1 1 -2
4726 674 3 -0.04 1.4338455996407482 9.094512400425867 21.57433449243982 2 -2 -2
2859 379 9 -0.27 1.6435619417609324 7.195977877249134 16.557912949941915 2 0 3
2862 379 7 0.09 2.2038643356045755 7.006017059574069 15.58375630264547 2 0 3
5074 732 3 -0.04 3.814338630105816 1.9156148463520926 17.543283482579312 1 0 -3
6428 957 1 0.09 6.163718885137993 3.7334628350486034 16.337078129702434 0 5 -1
5 1 1 0.09 10.222353389404747 9.296353098187229 16.358778381976975 -1 -3 -1
3710 504 1 0.09 4.142242751993853 10.631102883274707 15.632540318383795 -1 1 1
3709 504 1 0.09 2.523937289452346 9.9163141492646 16.229453506289293 -1 1 1
4521 639 2 0.42 9.736366574575936 1.1286886182786615 27.519342338921916 3 -1 -5
6424 957 3 -0.04 5.913581970945422 3.857390551346831 15.253490174308224 0 5 -1
927 123 9 -0.27 5.672745429484484 10.868660550740351 20.81530709095552 3 1 -4
1930 256 6 0.09 3.266650020402276 6.203804303329348 20.58168032231855 4 1 0
5429 791 4 -0.65 5.983000929896351 5.763551071761931 18.557599692534737 -3 4 1
5430 791 1 0.09 4.833098764400783 7.535203618123647 18.207457831136406 -3 4 1
5428 791 3 -0.04 5.608329444291778 6.909227227429496 17.711532291388334 -3 4 1
5432 791 1 0.09 5.284968457430253 6.690087222305611 16.692087608462813 -3 4 1
5075 732 4 -0.65 4.644653546124598 0.8245682418447167 17.104541979352344 1 0 -3
276 37 7 0.09 10.040769124366056 5.579554077689981 17.39509048317969 -3 1 2
4334 608 1 0.09 7.581341426408138 3.7801516753642495 21.363619251711725 1 1 -2
273 37 9 -0.27 10.81011259446471 4.925575810238381 16.898869215473646 -3 1 2
6608 987 1 0.09 10.252313239168357 6.090948548524809 20.983356086474164 -1 -3 0
5076 732 1 0.09 3.015149279310289 1.4802130562897262 18.20507394512428 1 0 -3
5431 791 1 0.09 6.544009897972373 7.587793178663958 17.74421037588624 -3 4 1
2860 379 7 0.09 2.483157874528674 7.651035438410517 17.182896469466222 2 0 3
2728 362 1 0.09 10.770604282684339 11.17270014213117 21.811338532610712 2 3 -2
5433 791 2 0.42 6.477421645752817 6.032001634094681 19.31109518120119 -3 4 1
6426 957 1 0.09 6.798265176520396 3.555582940511452 14.704799694492772 0 5 -1
2725 362 3 -0.04 10.34181873133882 10.188287511446843 21.639447691751492 2 3 -2
1844 244 6 0.09 8.551060128167444 1.9367400496444511 17.573253113442533 -1 2 0
4347 610 2 0.42 5.223488486070173 10.469132150902503 26.245192896931346 0 0 1
4335 608 2 0.42 8.493474503371079 1.9757883594535979 22.31709172622411 1 1 -2
4370 614 1 0.09 2.306008676591392 10.835810633574745 23.61837425647547 0 5 3
2632 348 6 0.09 8.46813157684743 10.117449728010314 14.993852047045154 -1 1 1
2857 379 6 0.09 0.4911768036446805 5.341236388232041 16.15991697484027 2 0 3
2858 379 6 0.09 1.9570517551291684 5.17390871014551 17.288922182457192 2 0 3
5873 865 4 -0.65 0.40852608221210457 2.65546072544058 18.828033630161862 -1 1 1
2630 348 10 -0.66 6.544102663308627 9.470823308933337 15.417587429130084 -1 1 1
2631 348 5 0.43 6.982142466452993 9.494506365829137 16.34756704746816 -1 1 1
5366 780 1 0.09 10.769320050903518 0.6882620344767011 24.415774561904993 -2 2 4
5874 865 1 0.09 1.3992139798734033 1.401319297130355 20.17563973835847 -1 1 1
3484 467 3 -0.04 6.40628794550567 7.388511476586108 21.479804375058837 -1 -1 -3
2277 300 2 0.42 10.074431555302827 7.175361007988996 26.72901178518896 -1 0 -3
4519 639 1 0.09 6.828016396697413 1.4803037627207656 27.57440447358652 3 -1 -5
3489 467 2 0.42 8.006948847316103 6.28208217841974 21.907148689943522 -1 -1 -3
1841 244 10 -0.66 9.107282904664647 2.2177114587436755 15.652804685892189 -1 2 0
3487 467 1 0.09 6.893155362366016 8.27236664791479 21.082571340863016 -1 -1 -3
3 1 1 0.09 10.810465201346851 9.049831037591149 18.1068294476316 -1 -3 -1
4517 639 4 -0.65 8.881910997163272 0.7429471668210995 27.687121134744203 3 -1 -5
2635 348 7 0.09 7.726633347665939 7.539105068519526 15.024062383330545 -1 1 1
6602 986 1 0.09 1.126315164882575 9.636243840238459 18.672561160386312 3 3 1
959 127 4 -0.65 0.6337244425509205 6.849169269940448 26.220226558511772 3 0 -4
4516 639 3 -0.04 7.9428208159113325 1.7649238356611385 27.750912616022063 3 -1 -5
5875 865 1 0.09 1.381461885047754 3.122185039403375 20.604460603189153 -1 1 1
4729 674 1 0.09 1.2853707867384079 8.140451918930996 21.073712175232952 2 -2 -2
930 123 7 0.09 5.289282735040583 9.807602618762589 20.657813219007874 3 1 -4
5872 865 3 -0.04 0.7435838523019801 2.299153915798039 20.195907656313143 -1 1 1
2276 300 1 0.09 8.56313427307383 7.336243998101321 25.088452377090587 -1 0 -3
6609 987 2 0.42 9.777136552167937 5.89956623189398 23.749234529216576 -1 -3 0
295 40 8 0.05 1.1223086989924933 3.2547779196725464 24.85321538805383 0 3 2
4731 674 2 0.42 2.986065325922697 9.898124178479407 22.143003369809687 2 -2 -2
6604 987 3 -0.04 10.391830452301532 5.530239236376657 21.923830645372746 -1 -3 0
958 127 3 -0.04 1.0210669773050385 7.297803315842459 24.96196640374703 3 0 -4
4943 710 4 -0.65 1.2436592568943836 9.343398459942446 27.637739722876876 1 -1 -1
365 48 4 -0.65 10.825530743976204 5.346326208774513 27.026125279168454 0 1 1
4728 674 1 0.09 1.3602391873336581 9.929407048595717 20.859822245401656 2 -2 -2
1927 256 8 0.05 2.9341187309492573 5.568258714424687 21.42498597088531 4 1 0
271 37 6 0.09 10.429503686967847 3.6511147312710364 18.687101216272033 -3 1 2
2729 362 1 0.09 10.237915161438053 9.832919370375604 22.697371169526786 2 3 -2
5585 817 4 -0.65 3.813030254147338 10.315855394461268 27.785569806432814 -2 -1 -2
4727 674 4 -0.65 2.6794679208804935 8.984709834744674 22.12909011551792 2 -2 -2
6429 957 2 0.42 5.114344900554872 2.1042369032045065 15.322413080073893 0 5 -1
6425 957 4 -0.65 4.986139448619924 2.8752658161115088 14.807351409619713 0 5 -1
1931 256 6 0.09 1.9420965452222494 5.265586702268956 21.36590189994964 4 1 0
1929 256 5 0.43 2.870934071552633 7.31121103161954 22.39024792792442 4 1 0
2272 300 3 -0.04 9.07179180045936 8.222959537928244 25.360882057011292 -1 0 -3
5365 780 1 0.09 9.135002051797095 1.4802774449740772 24.714540595561868 -2 2 4
5362 780 3 -0.04 10.171980263821114 1.6484747923716923 24.39859217494484 -2 2 4
302 40 7 0.09 0.43550267404264714 2.8516628778018056 22.927167056537602 0 3 2
6605 987 4 -0.65 9.41182888040417 6.021679100828988 22.8727183949058 -1 -3 0
3183 420 1 0.09 7.29685304818086 4.682945801124165 25.082250306870225 1 0 -3
3181 420 3 -0.04 6.563998569056129 4.291969674894014 24.316893499665888 1 0 -3
6581 983 4 -0.65 4.583335568941723 4.714793467676024 27.565159569268218 -2 0 2
5589 817 2 0.42 2.9424090532025966 9.84107862621002 27.858207113409136 -2 -1 -2
2726 362 4 -0.65 9.031089723862953 10.342365262657117 21.12920504587526 2 3 -2
6585 983 2 0.42 4.591374115135133 4.208175268411952 26.760974530673256 -2 0 2
3184 420 1 0.09 6.745429123139305 3.2447325956678363 24.05653955652018 1 0 -3
1840 244 8 0.05 8.470916192557144 1.4175472390307795 16.62605952886871 -1 2 0
4344 610 1 0.09 4.629909464901157 9.568359056909912 24.45093215571289 0 0 1
1711 226 1 0.09 10.575324664626502 1.717754583919281 20.233119851716292 -2 0 -3
1932 256 9 -0.27 3.9397960698993253 4.3772352073831335 21.560638569524837 4 1 0
4346 610 1 0.09 6.099316110280877 8.60916340097472 24.813386482162862 0 0 1
301 40 7 0.09 1.5951985380458709 1.54396406468794 23.518516100474987 0 3 2
6580 983 3 -0.04 3.402423198494967 5.567773245138218 27.500671167586237 -2 0 2
1934 256 7 0.09 4.961941332987764 4.618943782909029 21.758625161576205 4 1 0
3186 420 2 0.42 4.841314812078315 5.1547705772457535 24.113963256246645 1 0 -3
961 127 1 0.09 2.041573067307287 7.047685351581923 24.65075500654773 3 0 -4
6432 958 1 0.09 8.028259121545734 9.309588358627645 28.416186209021287 3 1 4
962 127 1 0.09 0.4872714473875935 6.822376271505039 24.03457304336316 3 0 -4
3185 420 1 0.09 6.822228259649107 5.003701694750357 23.5029682833765 1 0 -3
3486 467 1 0.09 6.296504991177732 7.603370025761417 22.571080781505838 -1 -1 -3
369 48 2 0.42 10.991435075637888 5.604225883966546 27.959607154530648 0 1 1
1935 256 7 0.09 3.962555552102013 3.7771405777282228 20.615661220237683 4 1 0
5363 780 4 -0.65 10.30994547064369 2.178705166525253 23.101921348451356 -2 2 4
4343 610 4 -0.65 5.965871942775378 10.512640000472492 25.649023753690606 0 0 1
6427 957 1 0.09 5.545195246440573 4.919701781925335 15.001622353688019 0 5 -1
6584 983 1 0.09 2.590933461424976 5.012690869444103 26.999578149234853 -2 0 2
960 127 1 0.09 1.0559185764124912 8.447046490280684 24.90497280738716 3 0 -4
3182 420 4 -0.65 5.2539571704605175 4.509648894868379 24.74182902914028 1 0 -3
1933 256 7 0.09 3.477059897415836 3.6285311705300427 22.25116270284776 4 1 0
4518 639 1 0.09 8.124891637354683 2.601353969883574 27.015670888321225 3 -1 -5
963 127 2 0.42 0.35505348273895854 5.917842948623354 26.15765829263937 3 0 -4
4342 610 3 -0.04 5.668054446588947 9.625415422090175 24.537543067078545 0 0 1
299 40 6 0.09 1.9422409061440529 3.950470035208413 24.539992440838223 0 3 2
1928 256 10 -0.66 3.1962314691895584 6.408288853668163 22.557130342031492 4 1 0
2274 300 1 0.09 8.483435427939806 9.13750928300833 25.268091670084925 -1 0 -3
298 40 6 0.09 1.4626155719680707 2.6585995443363446 25.77469797773377 0 3 2
4345 610 1 0.09 6.050294361467629 9.957195298425827 23.541563230714445 0 0 1
3488 467 1 0.09 5.427010275311859 7.290998766146434 20.980628525464745 -1 -1 -3
2275 300 1 0.09 9.80141054100395 8.348934191909322 24.55463096099858 -1 0 -3
5364 780 1 0.09 10.797941778056424 2.3332739498572463 25.060670766573647 -2 2 4
3202 423 6 0.09 3.754668273642427 1.3834349777446542 26.679654268488555 0 -2 -3
300 40 9 -0.27 0.741495892819396 2.2589607981442574 23.77817633330068 0 3 2
3708 504 1 0.09 3.5235567271336388 10.924360225884062 17.409310226106328 -1 1 1
929 123 7 0.09 5.776337866411214 11.169495333333769 19.713339630878185 3 1 -4
2727 362 1 0.09 10.969449742871697 9.477028219279688 21.04817778255069 2 3 -2
4947 710 2 0.42 0.8781357522602043 8.675002795053645 27.038947896302663 1 -1 -1
2730 362 2 0.42 9.12200198395776 10.841828019056207 20.297287207887024 2 3 -2
4428 624 1 0.09 4.683217001675274 1.0092572787056848 20.401745554991155 0 -2 0
2897 384 6 0.09 1.0166935426255226 1.8195954478312 15.245341449168196 1 4 0
3090 408 7 0.09 5.81745851945026 0.7457141841825418 24.79998541003661 2 0 -2
1843 244 6 0.09 7.33352548659671 1.3304583368642309 16.403775777388752 -1 2 0
6607 987 1 0.09 10.216202450500377 4.358476716592726 21.708669751539034 -1 -3 0
928 123 7 0.09 6.587229462656621 10.88101063499437 21.470063931593216 3 1 -4
2861 379 7 0.09 0.9266257777972685 7.992774667727138 16.300574877581198 2 0 3
3207 423 7 0.09 2.4666495934435577 1.893205033678216 28.388849219753713 0 -2 -3
6582 983 1 0.09 3.128675658755165 5.855450194867303 28.55801386116531 -2 0 2
1021 136 8 0.05 7.324885862670092 7.088378960824253 34.02778438102226 -2 3 1
6230 924 1 0.09 1.1497230723760352 1.840803854360995 35.5096280768868 -1 1 1
1888 250 1 0.09 6.527749627740596 7.3800081362035925 29.865025355354973 0 4 3
1889 250 1 0.09 7.564584278378469 6.2659104535638726 30.74681262026476 0 4 3
1885 250 3 -0.04 6.82263888754232 6.330083003527996 29.911848739668848 0 4 3
1887 250 1 0.09 7.464814316941635 6.196705034465722 28.99209959690643 0 4 3
1890 250 2 0.42 5.418190385605916 5.176186886660924 29.132926974276796 0 4 3
1886 250 4 -0.65 5.790135728822218 5.458735681784756 30.07987044902669 0 4 3
3204 423 9 -0.27 3.381607476224134 1.257598814681778 28.681738340217354 0 -2 -3
1788 236 2 0.42 4.6144532746589375 4.9084418543109525 31.44980912224381 -3 -1 0
1784 236 4 -0.65 4.150705105602524 4.638147598173807 32.25713230688707 -3 -1 0
4120 573 3 -0.04 0.32839415112061376 4.4447730865775785 39.65044278968274 -1 3 -1
5587 817 1 0.09 4.251442183160357 9.76347200007435 29.709628548311972 -2 -1 -2
1027 136 7 0.09 7.029011570551272 8.514439361766538 32.25830871231554 -2 3 1
4852 695 3 -0.04 10.847964610308395 10.678420373356515 32.38863471636216 1 -2 2
1907 253 1 0.09 9.821111563449433 2.6879621751252407 30.044847431463754 3 0 1
5584 817 3 -0.04 4.742398304160213 9.864372622790441 28.745595770253296 -2 -1 -2
1496 196 6 0.09 10.320251604657207 2.212922330913325 35.09995673346879 0 -2 -4
3703 503 1 0.09 1.0782680908897277 7.791176733044298 31.442636896057383 1 -1 -5
6041 893 4 -0.65 5.813157803111265 8.352258169742253 40.99884414146712 4 -1 0
6591 984 2 0.42 1.9815805929766275 4.3077144741971765 32.15832021612549 2 0 -4
4123 573 1 0.09 1.3825731878795842 4.36548598411523 39.5160044200897 -1 3 -1
6042 893 1 0.09 4.9416622306355364 8.790847451351286 39.12759900540975 4 -1 0
6044 893 1 0.09 6.100748136322591 7.245975616621086 39.22431027814913 4 -1 0
4856 695 1 0.09 10.640777787631137 9.570460336486011 32.24691019453526 1 -2 2
1499 196 7 0.09 7.987714035910167 3.0466477502759055 34.38369018708673 0 -2 -4
1495 196 6 0.09 10.790524453753344 2.111953717936207 33.314231183118196 0 -2 -4
4849 694 1 0.09 0.884803350990498 5.884900224555164 28.989010744694458 -2 -1 0
6430 958 3 -0.04 8.544715653142557 9.886349033754964 29.307950312146808 3 1 4
3700 503 3 -0.04 2.100428816957116 8.175313539838303 31.618397012675548 1 -1 -5
1028 136 7 0.09 6.877663905446611 9.098698879790494 33.947504579533984 -2 3 1
1783 236 3 -0.04 4.8472063971751655 3.6024734187921714 32.868662577822306 -3 -1 0
6587 984 4 -0.65 0.9773208551182619 4.249876223242552 32.03342843073755 2 0 -4
4627 657 1 0.09 1.6600877786087302 10.66319350818484 38.305711140586666 -3 2 2
1500 196 7 0.09 8.26052208674896 2.4312050101443514 32.80166791591371 0 -2 -4
1497 196 9 -0.27 8.842348084861365 2.907028940827977 33.620391311474904 0 -2 -4
3704 503 1 0.09 1.9963063560516225 9.268297489975911 31.806187685659538 1 -1 -5
3702 503 1 0.09 2.7377066373201635 7.941505041174814 30.671996251742335 1 -1 -5
1785 236 1 0.09 4.965121230216026 2.744082049628669 32.189999321199124 -3 -1 0
1498 196 7 0.09 9.246135238958264 3.8652158192324744 33.28857387037739 0 -2 -4
2242 296 3 -0.04 1.491602243407732 10.283515576613475 34.8619061159301 -2 -1 1
4520 639 1 0.09 8.160033351780795 2.0206442368383275 28.86150619035719 3 -1 -5
6431 958 4 -0.65 9.487193954733549 10.84439454726084 28.78516559259932 3 1 4
1560 204 2 0.42 7.52507105524699 11.036813632871988 37.68606640221151 -4 -3 -3
1787 236 1 0.09 4.300385548362617 3.2771641193870336 33.85925944142245 -3 -1 0
3997 552 1 0.09 10.55904041798804 8.494507743718316 36.008841109847324 4 2 2
1786 236 1 0.09 5.861365802727049 3.900153681571488 33.09782695035952 -3 -1 0
3996 552 1 0.09 10.69842815077421 9.593874010770573 37.52020207357572 4 2 2
1492 196 8 0.05 9.990495123296634 1.9713484148963574 34.050983695561456 0 -2 -4
3106 410 7 0.09 10.761538732936122 7.718408462586245 34.04405137106269 0 0 1
3107 410 7 0.09 10.44503838249781 6.658182857516091 32.63581155795008 0 0 1
1026 136 9 -0.27 6.714060086981554 8.251935094048484 33.30888186584254 -2 3 1
1330 176 6 0.09 4.567350498771289 1.7823895642876832 37.76174953709595 0 4 1
3705 503 2 0.42 3.2294048823968513 6.64546234172203 32.28352912560445 1 -1 -5
1029 136 7 0.09 5.640015752693312 8.086438114760739 33.17384590314302 -2 3 1
1025 136 6 0.09 8.445364190793685 7.242731280884972 34.10169164576668 -2 3 1
1024 136 6 0.09 7.133302220718257 6.125998643237289 33.418312587292476 -2 3 1
6043 893 1 0.09 6.683034572819925 8.943300866090356 39.144513593275306 4 -1 0
3701 503 4 -0.65 2.8161891211753582 7.461900778148607 32.62631941150504 1 -1 -5
3994 552 3 -0.04 10.21346404086937 8.717310884987477 37.01867511551747 4 2 2
2369 313 6 0.09 10.052527644117916 2.468299869917182 39.77169333603469 1 2 -1
3998 552 1 0.09 9.163303619755187 9.109614842146838 36.8551984177312 4 2 2
4626 657 1 0.09 1.2219212599486475 9.519469324688243 39.70532579544491 -3 2 2
1023 136 5 0.43 7.291060534525452 6.264507153058846 35.91955028122034 -2 3 1
6292 935 3 -0.04 6.7381811725667085 3.2329430119085236 42.354661699887856 -1 2 -2
1022 136 10 -0.66 6.83140862688045 6.976993348434774 35.38894369059577 -2 3 1
2246 296 1 0.09 1.0812140594265904 10.260840232494875 33.88813493511955 -2 -1 1
6590 984 1 0.09 0.7307809850449869 4.129472008826049 34.14530508186489 2 0 -4
1903 253 3 -0.04 10.846106211656316 3.23788738774103 30.115473364782694 3 0 1
2247 296 2 0.42 2.083181700287416 8.450184317068855 34.39905812371083 -2 -1 1
3673 498 1 0.09 6.971908432865715 1.639779904767983 35.523773791516405 1 -1 -1
3672 498 1 0.09 6.645909919884647 1.3091894941484725 37.28917336767198 1 -1 -1
3205 423 7 0.09 4.195173406945523 1.874780441820815 29.03008180158961 0 -2 -3
5586 817 1 0.09 5.570578355579981 10.595952362601336 28.777056400995523 -2 -1 -2
6040 893 3 -0.04 5.897388016854687 8.325707445309586 39.5673064528802 4 -1 0
2244 296 1 0.09 0.7775462808225672 10.70002078303329 35.607952228727996 -2 -1 1
6433 958 1 0.09 9.035389397010643 9.132538187580002 29.898819791937886 3 1 4
4910 704 1 0.09 3.5543326235688126 0.7417882252003568 32.36627357139353 2 3 -1
5579 816 4 -0.65 8.721434371608057 8.203676967572349 41.837135331026815 2 -2 -1
6588 984 1 0.09 0.7753015540707182 5.754692549747984 33.49907173035301 2 0 -4
1904 253 4 -0.65 10.59630030037357 4.664391786950606 29.85719573232865 3 0 1
6586 984 3 -0.04 0.46091633715306635 4.744965744470933 33.25965151079522 2 0 -4
5583 816 2 0.42 7.803415598903703 8.288371865517133 41.467244768356224 2 -2 -1
6434 958 1 0.09 7.730666326542932 10.443141990928277 29.85865374047221 3 1 4
5515 805 1 0.09 4.524523312487612 9.501952902672292 36.35212182356143 -2 2 -1
4780 683 3 -0.04 3.2202190628839813 6.059855705535847 41.36660011204842 2 -2 -1
2136 282 7 0.09 8.030453613805332 5.7878337755917855 38.63805652298882 3 1 0
1557 204 1 0.09 8.904679911817613 10.37816214537843 39.2766811406415 -4 -3 -3