LAMMPS data file via write_data, version 29 Aug 2024, timestep = 16210000, units = real

6216 atoms
10 atom types
5216 bonds
8 bond types
7432 angles
10 angle types
3792 dihedrals
7 dihedral types

0.8201620718482623 42.78648792814663 xlo xhi
1.1496006930733031 42.39209930691878 ylo yhi
1.2394865766251257 42.003323423349755 zlo zhi

Masses

1 1.008
2 1.008
3 12.011
4 15.999
5 1.008
6 1.008
7 1.008
8 12.011
9 12.011
10 15.999

Pair Coeffs # lj/charmmfsw/coul/long

1 0.024 2.38761 0.024 2.38761
2 0.046 0.400014 0.046 0.400014
3 0.078 3.65268 0.01 3.38542
4 0.1921 3.14487 0.1921 3.14487
5 0.046 0.400014 0.046 0.400014
6 0.035 2.38761 0.035 2.38761
7 0.024 2.38761 0.024 2.38761
8 0.056 3.58141 0.01 3.38542
9 0.078 3.6527 0.01 3.38542
10 0.1921 3.1449 0.1921 3.1449

Bond Coeffs # harmonic

1 322 1.111
2 428 1.42
3 545 0.96
4 222.5 1.528
5 309 1.111
6 322 1.111
7 428 1.42
8 545 0.96

Angle Coeffs # charmm

1 57.5 106 0 0
2 35.5 108.4 5.4 1.802
3 45.9 108.89 0 0
4 50 106 0 0
5 34.6 110.1 22.53 2.179
6 35.5 109 5.4 1.802
7 34.6 110.1 22.53 2.179
8 35.5 108.4 5.4 1.802
9 75.7 110.1 0 0
10 45.9 108.89 0 0

Dihedral Coeffs # charmmfsw

1 0.18 3 0 1
2 0.24 3 0 1
3 0.14 2 0 0
4 1.13 1 0 0
5 0.16 3 0 1
6 0.18 3 0 1
7 0.16 3 0 1

Atoms # full

3338 521 4 -0.65 2.0903752491295595 3.7828235284943452 5.987325782100987 2 -1 -1
4351 690 3 -0.04 4.532937231451052 3.380057554050859 1.5161746771043605 1 1 -1
4364 692 4 -0.65 8.097464590886204 3.7955391807852084 13.694377972246992 1 -3 8
4459 708 3 -0.04 10.366960344213084 8.58465638593107 3.1974435477839904 4 -2 -2
3337 521 3 -0.04 1.589739296219195 4.780260478692728 5.057486611450544 2 -1 -1
5701 915 3 -0.04 9.166159256559421 2.474716419797414 6.17166871411117 0 0 2
186 25 2 0.42 3.5966080997177268 4.095202407156096 6.88422081738434 -1 -2 2
5384 862 4 -0.65 4.748079361631931 7.633641840905271 4.829034766099985 -1 1 0
4464 708 2 0.42 9.903070384362051 10.322778094545559 3.849342949275505 4 -2 -2
5702 915 4 -0.65 9.373858225669089 1.3612759483205157 5.351965230120953 0 0 2
5388 862 2 0.42 4.031021992188036 8.242782702964861 4.9744609497627 -1 1 0
5191 830 3 -0.04 9.747450405067328 4.145413680265962 2.6361631033377178 0 -3 4
5383 862 3 -0.04 5.240398960830145 7.055260263247703 6.04384487155363 -1 1 0
5386 862 1 0.09 6.091012503736683 7.625176812756934 6.531866515870779 -1 1 0
5385 862 1 0.09 5.570691545406455 5.9964162226350215 5.837126245127012 -1 1 0
5700 914 2 0.42 5.188208891835916 7.00077132482348 3.2860814557943248 1 -1 -2
3341 521 1 0.09 1.8645538993780986 4.631631638357484 4.038767415381569 2 -1 -1
5387 862 1 0.09 4.4405352031206915 6.953972317009951 6.7795133964233365 -1 1 0
183 25 1 0.09 6.101283865667246 2.8862219484423126 6.9942596459998025 -1 -2 2
185 25 1 0.09 4.535808387489412 2.150529983347259 6.560210853431379 -1 -2 2
181 25 3 -0.04 5.070578388169457 2.8512392696945046 7.236231253387897 -1 -2 2
182 25 4 -0.65 4.483279725393603 4.149400820696842 7.223511167722268 -1 -2 2
1515 217 1 0.09 5.826434221810527 2.209158938990741 4.222354838166836 5 0 0
299 42 4 -0.65 1.6959565401550423 8.6616835993429 5.451817283087245 0 -2 -1
4460 708 4 -0.65 9.882743569973726 9.464454680152357 4.285484787344204 4 -2 -2
1299 181 1 0.09 1.5399326078122613 1.1795056018554835 13.582253178518682 1 1 -2
184 25 1 0.09 4.952042374506182 2.3208677950993426 8.220181559004288 -1 -2 2
4365 692 1 0.09 7.636427678717734 1.7028136890519212 13.969978997258053 1 -3 8
37 6 3 -0.04 7.111226180907958 11.452223589622902 4.8672130244279455 0 1 0
3342 521 2 0.42 1.8752683118168765 2.9469725269278735 5.550321108386671 2 -1 -1
4761 758 1 0.09 4.150240712623276 2.68195341745232 12.359522768818286 5 -2 2
2535 387 1 0.09 3.217290443578715 10.19187451728237 14.540707834233187 -1 -1 0
421 57 7 0.09 3.9845636074538007 10.000650319102705 2.785716110667441 0 1 0
4571 726 1 0.09 2.4474571188301093 3.707316809496133 9.620024471931268 -2 4 -2
4569 726 1 0.09 1.181039925681253 2.771500983628828 8.652271410948671 -2 4 -2
5706 915 2 0.42 9.273466125427433 1.7293106772301539 4.470091784003246 0 0 2
300 42 1 0.09 1.44383307090468 10.623934369933998 6.187208315393975 0 -2 -1
5699 914 1 0.09 7.6446505608467055 7.055360986560503 2.962064019912683 1 -1 -2
5195 830 1 0.09 10.576909738974724 3.659577689470048 2.0864079939613873 0 -3 4
5703 915 1 0.09 8.350415774496 3.150557987983501 5.8781054932410095 0 0 2
5194 830 1 0.09 10.112403914697765 4.633130541299634 3.556495804185139 0 -3 4
2187 329 1 0.09 7.176341977815965 8.31431164422239 9.09463130072481 -1 -2 3
3222 501 2 0.42 8.107918541176396 11.307713927793252 12.957578331721871 0 2 0
5192 830 4 -0.65 8.85717642666291 3.0911914586759615 3.0549225650856418 0 -3 4
3727 586 3 -0.04 10.235154011083232 5.760251304900205 6.792862685521212 1 0 2
2725 419 3 -0.04 10.00736753621441 11.132914087214827 7.5760531174962615 1 0 -1
5196 830 2 0.42 8.46850788379256 2.752433971562102 2.284494164264641 0 -3 4
3340 521 1 0.09 2.0387827800872813 5.743975294474181 5.462302890390761 2 -1 -1
41 6 1 0.09 6.006105217048916 11.284696982241673 4.621430572774225 0 1 0
88 13 6 0.09 1.592196645771455 7.496624637447071 2.2900042265932745 -3 0 4
5695 914 3 -0.04 6.940805720145361 6.355770155115212 2.658996030881582 1 -1 -2
423 57 7 0.09 5.186819564971102 11.217820107665897 2.099564574734813 0 1 0
2726 419 4 -0.65 11.045855697486077 10.825453352916712 6.670669645184584 1 0 -1
3946 622 1 0.09 5.906413604924304 10.333624409913574 10.950304041029385 -3 -3 0
5704 915 1 0.09 8.91094726121041 2.094780616733771 7.208861218061247 0 0 2
2730 419 2 0.42 10.646677369544571 10.299442950553063 5.927072692130043 1 0 -1
5697 914 1 0.09 6.995360244298359 5.439538557249449 3.3015972201805277 1 -1 -2
5193 830 1 0.09 9.246919798949133 4.9392985601431185 2.002619411715753 0 -3 4
4463 708 1 0.09 9.696041176624533 7.6758201808348065 3.000256575336509 4 -2 -2
5696 914 4 -0.65 5.628930633696681 6.87411558160626 2.425863482861922 1 -1 -2
3728 586 4 -0.65 10.247774745333356 4.941866572527199 8.03605349711356 1 0 2
4548 722 2 0.42 9.83553969441274 9.850429244655412 12.27083513993097 1 0 -5
4363 692 3 -0.04 7.866848460503048 2.6356669392570162 14.542246665759315 1 -3 8
3730 586 1 0.09 9.247048678091518 5.792351657546984 6.202848981586186 1 0 2
5698 914 1 0.09 7.216421146991622 6.030324574224944 1.6600173976660146 1 -1 -2
89 13 6 0.09 2.7632939930613425 6.14885964585378 2.676944187072947 -3 0 4
4171 660 3 -0.04 2.910481044195998 7.271278410897613 9.33676558671116 1 4 3
3943 622 3 -0.04 5.132722366515207 10.651345841702751 10.156448228219027 -3 -3 0
4547 722 1 0.09 8.7921158119332 7.920670390524186 11.158108107594092 1 0 -5
4626 735 2 0.42 2.7041631075043946 4.421191345298455 13.878983018351686 1 2 -3
2534 387 4 -0.65 4.418383714285001 11.452477600657176 13.305688400275265 -1 -1 0
298 42 3 -0.04 1.3897287065598531 9.576519964093809 6.497271374830169 0 -2 -1
4759 758 3 -0.04 4.7867755238228975 3.5688531755948354 12.201599510444698 5 -2 2
2731 420 3 -0.04 8.222889240831842 3.0248564035942103 10.173968587612084 1 -2 0
4368 692 2 0.42 8.583494506431958 3.421560871483044 12.94839933394163 1 -3 8
1341 188 1 0.09 10.1868117648762 6.334438964766118 12.371818424666646 -3 2 0
3947 622 1 0.09 4.169525074016226 10.169482519095645 10.473849219974507 -3 -3 0
2729 419 1 0.09 10.51704753088057 10.92403189827774 8.641578554189072 1 0 -1
2185 329 3 -0.04 8.054374753905986 7.704452659291491 8.56754706799719 -1 -2 3
5705 915 1 0.09 10.079067829087748 3.025515550408382 6.260295764267514 0 0 2
4172 660 4 -0.65 4.144670937323688 6.8078939569652 9.91927581359591 1 4 3
2533 387 3 -0.04 3.982310155234207 10.14432181238494 13.685337808549908 -1 -1 0
4544 722 4 -0.65 8.934851702601707 10.03087862002833 11.862888248519448 1 0 -5
1343 188 1 0.09 11.095625931138452 5.157618102231862 11.214726922071387 -3 2 0
4546 722 1 0.09 7.315754460850018 8.794912554246316 11.46084829121239 1 0 -5
4354 690 1 0.09 5.419639110807148 3.663709974953599 2.2468147869162527 1 1 -1
5378 861 4 -0.65 1.1935993773392561 1.216571685282854 5.153191750460113 3 4 -1
39 6 1 0.09 7.595935206543635 11.234126997024285 3.8939357867594677 0 1 0
4760 758 4 -0.65 4.131201405419006 4.690024623087305 12.761595345276959 5 -2 2
2728 419 1 0.09 9.143137712507588 10.439024566107603 7.4312232477687035 1 0 -1
4543 722 3 -0.04 8.342382420441623 8.703640791693829 11.832275273507353 1 0 -5
4175 660 1 0.09 3.0506547775173605 8.327729293347442 8.977213231755876 1 4 3
90 13 9 -0.27 1.0919043080662238 5.547454431012206 1.4272536390831883 -3 0 4
2190 329 2 0.42 8.718281760658638 5.826168849749427 8.591360047062715 -1 -2 3
4763 758 1 0.09 5.768802561022133 3.4713442080022436 12.625842154213938 5 -2 2
2189 329 1 0.09 8.122982070951581 7.6207247774776965 7.542240778876433 -1 -2 3
2735 420 1 0.09 8.094714775160037 2.3638510669449726 9.356145224202727 1 -2 0
4173 660 1 0.09 2.546576504572143 6.711121637997911 8.477273160191299 1 4 3
4764 758 2 0.42 4.292018435215532 5.423431450792021 12.127102516105923 5 -2 2
2734 420 1 0.09 8.828701074042321 3.9071260534169943 9.919159994977338 1 -2 0
4174 660 1 0.09 2.0367318647011468 7.325308756508762 10.003826113808962 1 4 3
2186 329 4 -0.65 7.999390667062994 6.344217952768648 9.005146954076869 -1 -2 3
2736 420 2 0.42 8.231158696346913 1.521993875267027 11.392383522194224 1 -2 0
2536 387 1 0.09 3.5670524006335245 9.561798044040627 12.766587025764485 -1 -1 0
2537 387 1 0.09 4.875081855648415 9.619054085881748 14.050666309764155 -1 -1 0
4545 722 1 0.09 8.29680591200691 8.343067569509824 12.862748083685423 1 0 -5
4353 690 1 0.09 3.701708844746926 3.7584651123448696 2.0376564125676544 1 1 -1
2733 420 1 0.09 7.324932293199634 3.519740023136697 10.442769139765261 1 -2 0
2810 433 4 -0.65 11.183410537227852 9.7999842612182 13.51992426103517 -1 -3 2
4762 758 1 0.09 4.917240723674331 3.6167631453568765 11.044227088366826 5 -2 2
420 57 9 -0.27 4.100852624252639 10.957807563095411 2.2890837804009703 0 1 0
4176 660 2 0.42 4.51989531432765 6.211586516534319 9.285808137148763 1 4 3
2732 420 4 -0.65 8.754915241474102 2.273817705666575 11.258334610655421 1 -2 0
4567 726 3 -0.04 1.4378710101560204 3.758147766192408 9.13443448896743 -2 4 -2
2188 329 1 0.09 8.8982259856109 8.236459033112496 8.995141313168487 -1 -2 3
3732 586 2 0.42 11.1784673522356 4.743371956570879 8.180498646837263 1 0 2
3945 622 1 0.09 5.537678134606645 10.420786827379594 9.160133975913123 -3 -3 0
4621 735 3 -0.04 1.1734497495143152 5.490667646168911 14.461896494807839 1 2 -3
85 13 8 0.05 2.122659064436604 6.57581298469267 1.908374209707441 -3 0 4
303 42 2 0.42 0.9105872977478063 8.085300612177491 5.195416817263659 0 -2 -1
40 6 1 0.09 7.495008194502429 10.577655581638806 5.505691801816717 0 1 0
3729 586 1 0.09 11.021003887280736 5.345268580107221 6.126498207219817 1 0 2
302 42 1 0.09 2.18150112707441 9.596072885625235 7.32732145928481 0 -2 -1
3912 616 2 0.42 7.315923853176892 5.182172907941401 14.598955713361924 0 1 2
3731 586 1 0.09 10.388481669319017 6.852990585574694 7.1126812859024815 1 0 2
4461 708 1 0.09 10.392563078074799 9.242899057836665 2.293357996131605 4 -2 -2
4622 735 4 -0.65 1.9812778816343406 4.265438098157622 14.531072901720565 1 2 -3
4570 726 1 0.09 1.472105488300114 4.592138420620754 8.377166725777627 -2 4 -2
5867 942 1 0.09 3.405581842982503 11.323191359382722 6.872199258360934 5 0 0
1339 188 3 -0.04 11.158480383482662 6.004381164323199 11.92519423776542 -3 2 0
4625 735 1 0.09 0.8645828415296819 5.654274671559704 13.401659980634212 1 2 -3
1760 258 4 -0.65 9.671269775637777 2.5088958929797833 24.084721361046164 -1 0 0
2967 459 1 0.09 3.639061062417186 9.064138296162405 21.841940852775316 3 -1 2
786 107 9 -0.27 7.324534501130571 3.5266549536574274 18.440847948866416 -3 -2 -1
2143 322 3 -0.04 8.575541954630753 9.948197284804452 20.150884258924318 0 0 3
2147 322 1 0.09 8.603017070623652 10.279670062204874 19.13654581493409 0 0 3
2144 322 4 -0.65 7.194531606117318 10.166283810953958 20.391203597906003 0 0 3
743 101 10 -0.66 9.116056784475076 5.894794411830349 16.581726088884807 0 -1 1
1002 137 1 0.09 4.1861066198789825 9.878021631604744 16.94466357194741 1 -1 -1
4481 711 1 0.09 9.822182946038897 6.521871275203494 20.328589553017405 0 -3 -4
742 101 8 0.05 9.58543447205263 7.239725180281936 16.438986351293558 0 -1 1
746 101 6 0.09 9.102829257396884 7.439503640170669 15.402837813227826 0 -1 1
1001 137 4 -0.65 5.122776215104981 10.617788557299303 18.64983627135167 1 -1 -1
1003 137 1 0.09 6.06856478345059 9.93045568149778 16.891774676595197 1 -1 -1
744 101 5 0.43 8.224749118733104 6.01601117119281 16.183349942113303 0 -1 1
4480 711 1 0.09 10.97553722382285 6.246918447428832 21.585808545047346 0 -3 -4
448 61 1 0.09 2.1246568858764805 2.686821748129015 21.018757690731015 -4 4 2
3916 617 1 0.09 4.021999709561136 5.582342670606324 19.64406863980216 3 4 1
3909 616 1 0.09 5.648574753297947 5.762731217621004 16.767435697140833 0 1 2
1196 164 4 -0.65 9.969097409165972 5.1484527749595355 25.223111253668897 7 -1 -2
3915 617 1 0.09 3.5563236278685704 7.276779814924267 19.430592443675813 3 4 1
747 101 9 -0.27 11.122995153751669 7.247586945431349 16.41590241145774 0 -1 1
3073 477 3 -0.04 1.8411217131818443 3.2100922156444898 17.80474311589294 0 -3 2
4802 765 4 -0.65 4.371720934782316 1.7676488863424518 15.92071152685134 3 0 0
1764 258 2 0.42 9.684173078170124 1.965773489331097 23.29228076068195 -1 0 0
3917 617 1 0.09 3.4471123073316225 6.486812915320091 21.120486374786946 3 4 1
4366 692 1 0.09 8.737857991806983 2.389580549718384 15.235279868830856 1 -3 8
787 107 7 0.09 7.84966136058154 4.174628915387569 19.19541796958144 -3 -2 -1
3908 616 4 -0.65 6.955388548377242 6.036590715892975 15.001088439701919 0 1 2
781 107 8 0.05 6.215660650901621 2.7115088729227206 19.155052235444554 -3 -2 -1
3913 617 3 -0.04 4.078974472526563 6.589356646169981 20.160700782823042 3 4 1
4511 716 1 0.09 10.95514379188187 2.476644796303444 16.319572443754147 0 -1 -2
4806 765 2 0.42 3.751526168532229 2.2872365358548397 16.517386866572217 3 0 0
3075 477 1 0.09 2.063196881198014 3.122512862666108 18.826564600494613 0 -3 2
745 101 6 0.09 9.13375158160125 7.741734019609318 17.29381959251964 0 -1 1
788 107 7 0.09 6.900496045258176 4.159233989127037 17.705662841071913 -3 -2 -1
3078 477 2 0.42 2.6599926263499087 4.180751027422435 16.371337312542295 0 -3 2
4477 711 3 -0.04 10.62451778921389 5.865328645834613 20.616706100457485 0 -3 -4
4479 711 1 0.09 10.134729031274746 4.900095070751269 20.814185981984487 0 -3 -4
1535 220 1 0.09 10.65073552522757 2.800814160796363 21.14430814559734 -2 -4 4
4954 790 1 0.09 7.078036788041815 8.397469471677168 27.345180059346742 -1 0 0
543 75 5 0.43 2.6379213264813495 10.080254024123263 27.83366322493747 -3 6 -1
3910 616 1 0.09 4.974617765784395 6.103181848825366 15.108268768856165 0 1 2
3076 477 1 0.09 0.8425925744314215 3.666251799888824 17.746202620749482 0 -3 2
784 107 6 0.09 5.831717518748232 3.096458556350685 20.10911736199119 -3 -2 -1
1005 137 2 0.42 6.043261960248305 10.611131559761873 19.011648356545436 1 -1 -1
3907 616 3 -0.04 5.754906376335147 5.582211632075815 15.676533183553838 0 1 2
5928 952 2 0.42 5.570678338588666 3.9447761207094354 23.702758564965293 3 1 -4
2966 459 4 -0.65 1.544247751866846 8.678360625188418 22.24158325172403 3 -1 2
3074 477 4 -0.65 2.9017138858947202 3.9662144907415957 17.237903477523396 0 -3 2
789 107 7 0.09 8.12343172534153 2.9309692370078704 17.9154208209493 -3 -2 -1
1000 137 3 -0.04 5.153539666383763 9.772600894246215 17.535625492153333 1 -1 -1
445 61 3 -0.04 3.0667477504559586 2.5655714762749104 21.626601120945907 -4 4 2
1200 164 2 0.42 9.823184922788558 4.170159899286958 24.98414154550921 7 -1 -2
1004 137 1 0.09 5.151023190254344 8.646941767529057 17.81256833035171 1 -1 -1
3911 616 1 0.09 5.702125296388438 4.461491810176584 15.474016580368342 0 1 2
2803 432 3 -0.04 4.493162160392024 11.239557890625445 24.946714341849244 1 2 0
4367 692 1 0.09 7.05850501388815 2.881315395646243 15.310032518993852 1 -3 8
1198 164 1 0.09 10.447620895081664 5.246519070825337 27.26711135069875 7 -1 -2
4512 716 2 0.42 11.241815771927326 4.845006048544191 16.50023127194207 0 -1 -2
3259 508 3 -0.04 7.488475677110562 4.616155383120842 22.17078546993438 1 0 -2
1536 220 2 0.42 8.261343347687259 1.1823403433336055 20.897604597485753 -2 -4 4
545 75 6 0.09 1.689344748918768 7.3831685309205115 28.08827207553919 -3 6 -1
114 16 9 -0.27 2.681573810031524 6.61788559652443 25.166101492289663 0 0 0
785 107 6 0.09 5.404697608156385 2.542666271732454 18.493147822582035 -3 -2 -1
2965 459 3 -0.04 2.6631030161111133 9.603865934621886 22.1806918760329 3 -1 2
2148 322 2 0.42 6.987669416463462 9.974580067387448 21.304888844732126 0 0 3
2969 459 1 0.09 2.789990452508653 10.113969824655632 23.183805264522128 3 -1 2
2145 322 1 0.09 9.182577576753177 10.725650810322326 20.689739934834005 0 0 3
2146 322 1 0.09 8.991920375664256 8.960962208702835 20.225960736740685 0 0 3
1759 258 3 -0.04 10.392456985707105 1.7185990169360683 24.95453950957587 -1 0 0
541 75 8 0.05 1.6857689319922025 8.472402530575344 28.314069808476276 -3 6 -1
1531 220 3 -0.04 9.881868615460887 2.1912939929735296 20.583383032504045 -2 -4 4
1532 220 4 -0.65 9.067155567540194 1.4097954429736024 21.415013316854267 -2 -4 4
109 16 8 0.05 2.6139126262473136 5.131944596135719 24.710980302867377 0 0 0
3918 617 2 0.42 5.446442370113143 7.96440986407267 20.516271032502736 3 4 1
3914 617 4 -0.65 5.4156861296953815 7.007702641383171 20.35925857616781 3 4 1
5926 952 1 0.09 6.17231143670913 3.110642850474228 26.13146630822021 3 1 -4
3263 508 1 0.09 7.6174904149963565 4.99629910195767 21.155217995011785 1 0 -2
117 16 7 0.09 2.0505388978845156 6.747035721202384 26.021633385526687 0 0 0
1533 220 1 0.09 10.4162149851582 1.5567974428354547 19.817208407012753 -2 -4 4
3309 516 1 0.09 3.623591980091319 1.2025059201921626 26.05243947749156 2 -2 0
1199 164 1 0.09 8.983057619757261 6.165386897788296 26.785144196923984 7 -1 -2
782 107 10 -0.66 6.894342653937375 1.5419186388652146 19.50342522314245 -3 -2 -1
4951 790 3 -0.04 6.3909158869029925 7.620459984533455 27.65696614926686 -1 0 0
2968 459 1 0.09 2.459680195218649 10.368508717505156 21.42413601109658 3 -1 2
1795 264 3 -0.04 7.323536426365398 8.056088328038276 23.42379677816705 0 3 1
5924 952 4 -0.65 5.208715013077119 3.2491323844166446 24.348852259206016 3 1 -4
5923 952 3 -0.04 6.282852574178801 2.716033258538612 25.085049572568934 3 1 -4
1799 264 1 0.09 6.729541779099141 7.256947043520967 23.763683199270975 0 3 1
1796 264 4 -0.65 6.506957960780388 9.188341008828749 23.035242452793007 0 3 1
5818 934 1 0.09 9.501387285550619 2.856834441181128 28.246957576190084 2 4 3
4805 765 1 0.09 2.4757132994870794 1.2227181202607547 15.286175951547566 3 0 0
1197 164 1 0.09 8.928883166949767 4.3748994229252185 26.91778581993746 7 -1 -2
1798 264 1 0.09 7.991130697138802 8.298044320429067 24.236631514520308 0 3 1
449 61 1 0.09 3.6465503635292964 3.532598987952388 21.43511808606053 -4 4 2
5093 813 1 0.09 1.977418521846425 4.093427032948883 27.93629591305276 1 0 0
116 16 7 0.09 3.6980533299181713 7.000075926294884 25.473760327766573 0 0 0
3260 508 4 -0.65 6.108164180222326 4.950060105246984 22.378168987247037 1 0 -2
1534 220 1 0.09 9.288671636336009 2.8953310165879476 20.009189478492637 -2 -4 4
1797 264 1 0.09 7.99384583262489 7.703962787269079 22.554104799868913 0 3 1
450 61 2 0.42 3.72090138123478 2.4102118326262163 23.458517249611262 -4 4 2
111 16 5 0.43 1.5223916312327725 3.6569428264430734 24.316254310793962 0 0 0
446 61 4 -0.65 2.899956677252391 2.198112827944019 23.02885778169407 -4 4 2
115 16 7 0.09 2.361742962717848 7.30246534105746 24.342175288823686 0 0 0
4953 790 1 0.09 5.416460688022502 8.12380443220365 27.837258658223124 -1 0 0
110 16 10 -0.66 1.3331382265827063 4.584152148034844 24.489203974039796 0 0 0
2808 432 2 0.42 4.0703077036278765 9.770741393828725 26.103317968274943 1 2 0
3261 508 1 0.09 8.126883698611861 5.05604478706858 22.930162213315445 1 0 -2
5925 952 1 0.09 7.239086650375587 3.1120450644812117 24.756658175727843 3 1 -4
542 75 10 -0.66 2.7613518406298994 9.125214764510506 27.631706640804918 -3 6 -1
4955 790 1 0.09 6.253052791950371 6.820493358561034 26.86454322339166 -1 0 0
447 61 1 0.09 3.611280155764512 1.7639282897359054 21.039376933688693 -4 4 2
3264 508 2 0.42 5.950316406699833 5.582168682754714 21.655766081291166 1 0 -2
113 16 6 0.09 3.2069655854720023 4.490309882433434 25.403266606157974 0 0 0
3262 508 1 0.09 7.5587491457981075 3.49580753848487 22.133193005476276 1 0 -2
1800 264 2 0.42 5.895260091736241 9.437540155504385 23.78390921153505 0 3 1
1195 164 3 -0.04 9.58591131050107 5.2790151385469395 26.56950195858769 7 -1 -2
2804 432 4 -0.65 4.7419161295705115 9.950668373737614 25.425615465463583 1 2 0
112 16 6 0.09 3.1778767417399343 5.089144726628879 23.74973661783107 0 0 0
5927 952 1 0.09 6.366212218845152 1.6593176121896183 25.0016407059807 3 1 -4
3077 477 1 0.09 1.8037201260923825 2.284868779444814 17.299980152067356 0 -3 2
1761 258 1 0.09 10.43480519677003 2.2293447503510473 25.916581844874802 -1 0 0
4593 730 1 0.09 1.0561406884048061 2.5510371181800373 25.66224108156081 -1 1 3
4482 711 2 0.42 11.276280536460476 5.332394801453357 18.839043668025514 0 -3 -4
2807 432 1 0.09 4.928289843577805 11.351688991416747 23.860808388565886 1 2 0
4624 735 1 0.09 1.6796368984942054 6.351674981192987 14.912956553498033 1 2 -3
5819 934 1 0.09 8.922484880995022 1.327871412229477 27.812917161804005 2 4 3
6121 985 3 -0.04 3.314094752731345 3.440946832944701 32.42600658971881 0 1 1
6122 985 4 -0.65 2.5904169966467165 4.524233347004856 32.95675470507912 0 1 1
6124 985 1 0.09 2.717285143293237 2.496853854916573 32.40280103038927 0 1 1
6126 985 2 0.42 3.243490410269764 5.216313932351326 33.10722187050095 0 1 1
6125 985 1 0.09 3.638230381315324 3.6220792800355994 31.39411954869227 0 1 1
2595 397 1 0.09 9.363580359109685 7.628770643513698 28.92672551205339 4 -1 0
4517 717 1 0.09 8.620489694437605 1.343939258843492 35.61037024228258 1 0 -1
3133 487 3 -0.04 7.57648017845619 4.894695473354364 31.490492345338488 1 -4 -1
3358 524 1 0.09 10.399111252342992 1.4741540450048878 32.29210124327765 -2 2 -5
1924 285 1 0.09 2.122142297956575 11.132530208725623 29.954398319212174 2 -1 -1
3134 487 4 -0.65 6.974545173131721 4.331260834127157 30.34675032345303 1 -4 -1
2156 324 4 -0.65 3.9616782595327353 10.034467452308126 32.45136970189401 4 4 -1
261 36 2 0.42 4.662793883131341 6.925971085298916 32.92430023500998 -1 -3 -3
5615 900 1 0.09 9.676945579205682 9.36339091800968 34.147449282582365 3 1 -3
257 36 4 -0.65 4.514491598128643 6.491944390069208 33.763121302638034 -1 -3 -3
2160 324 2 0.42 4.193853926889525 10.369129767200436 31.563391855575347 4 4 -1
6135 987 1 0.09 4.3914389316680165 6.994527872330382 29.32069900408026 5 4 1
6134 987 4 -0.65 5.230109752374232 7.2985742293129805 31.165688560281758 5 4 1
6138 987 2 0.42 5.271406273510066 8.141812101104417 31.732835733158172 5 4 1
3135 487 1 0.09 7.029746881894884 5.827586792829167 31.845407672261818 1 -4 -1
6133 987 3 -0.04 4.087277344245522 7.358551207693968 30.315333704372286 5 4 1
4342 688 1 0.09 1.420521576346364 1.7294031100381468 33.390465141302535 -1 1 1
256 36 3 -0.04 5.220200096350308 7.267746236118916 34.784420930346826 -1 -3 -3
3137 487 1 0.09 8.658936176258816 5.170575111620373 31.206601900334917 1 -4 -1
3357 524 1 0.09 9.428023441383983 2.874278659076763 31.61503837426457 -2 2 -5
2593 397 3 -0.04 9.995333818286623 8.0362041460031 29.720556292865 4 -1 0
259 36 1 0.09 6.048980126726357 7.894688541569547 34.36616054559712 -1 -3 -3
4022 635 4 -0.65 5.3802773143515665 1.756155389742713 30.476400405869168 3 0 -2
6123 985 1 0.09 4.307898501522773 3.1835577534082047 32.996512328208595 0 1 1
5612 900 4 -0.65 8.087251383742654 8.65155146957784 33.00230051344842 3 1 -3
5616 900 2 0.42 8.601818920223497 8.75274412204947 32.25076052581477 3 1 -3
2598 397 2 0.42 10.249736656644039 9.997869330023752 30.13731214979047 4 -1 0
258 36 1 0.09 5.531916013789602 6.69434248884457 35.67541728303583 -1 -3 -3
2594 397 4 -0.65 9.52443427688656 9.309547558753499 30.17825526054425 4 -1 0
5611 900 3 -0.04 8.602590553509199 9.527842511907286 34.021190699090326 3 1 -3
3136 487 1 0.09 7.6170905712454955 4.270715076139567 32.38418009400401 1 -4 -1
6137 987 1 0.09 3.6570456959132094 8.379133794239408 30.215088375527415 5 4 1
260 36 1 0.09 4.468161399074553 7.990399829646501 35.234933990459425 -1 -3 -3
2494 380 1 0.09 10.23711949813299 10.292284993262168 41.04592774692605 1 -9 -1
2906 449 4 -0.65 5.022465196295187 10.667435493653727 30.035262774164785 3 2 -4
5092 813 1 0.09 2.4967399565277093 3.0969479462109195 29.38175367654249 1 0 0
3608 566 4 -0.65 3.041495625475106 1.86585428242399 39.291377125301985 -3 1 1
3138 487 2 0.42 6.669607117452264 5.016425721409518 29.758559381170613 1 -4 -1
5816 934 4 -0.65 10.861563368069547 1.344112692996303 28.6603537599583 2 4 3
5614 900 1 0.09 8.212565029049692 9.265961613685297 35.01665044260937 3 1 -3
5091 813 1 0.09 2.113610321453059 4.72087278392822 29.5504478220702 1 0 0
6204 998 2 0.42 5.492526277680544 1.6875072445249342 36.41880125733509 1 1 3
5613 900 1 0.09 8.389686303581898 10.530020607961578 33.77194399969216 3 1 -3
4956 790 2 0.42 6.379904873131432 7.473073159655671 29.560839515029695 -1 0 0
4952 790 4 -0.65 6.916608907670213 7.0391239535201695 28.81260350985978 -1 0 0
4198 664 1 0.09 1.7147605468871108 6.753529921048863 34.20813078025696 -1 3 1
6104 982 4 -0.65 8.893717147797997 1.187827895889775 41.78300384356799 3 1 -1
2155 324 3 -0.04 4.660990381287832 10.885348891323439 33.35831714973324 4 4 -1
3207 499 1 0.09 6.1329595383814315 1.7269372916426282 39.666136918839214 2 1 -1
4343 688 1 0.09 1.1576421521593423 2.454712510632519 35.09494635430635 -1 1 1
2909 449 1 0.09 6.877191122449462 10.796652461354313 30.525400334091927 3 2 -4
1739 254 1 0.09 8.374662074224032 5.4382051448027395 34.24817330063176 -1 0 0
2157 324 1 0.09 5.740708811862972 10.742939905456884 33.36257332637056 4 4 -1
3355 524 3 -0.04 10.38962421614752 2.568457784005231 32.016062229478116 -2 2 -5
5815 934 3 -0.04 9.512211821716267 1.8421357347548266 28.626211277999133 2 4 3
3611 566 1 0.09 1.6188222370155638 2.965917037211995 40.20789078807685 -3 1 1
2159 324 1 0.09 4.270943573507498 10.766275289836768 34.403077473337625 4 4 -1
651 89 7 0.09 1.1156626121952709 9.501015207042316 31.48934522444734 -3 0 -4
803 110 10 -0.66 2.220096353105771 6.923007213996588 38.966129948363175 1 -2 0
230 32 1 0.09 9.556601206627324 8.005346890290642 36.91515085116485 1 4 -3
4200 664 2 0.42 1.4118635480692514 7.34157520914406 36.95935090944107 -1 3 1
6201 998 1 0.09 3.407608027859895 2.8331995415401554 35.68968670671094 1 1 3
4196 664 4 -0.65 1.1746556097212886 7.479870234434891 36.038150909113085 -1 3 1
3607 566 3 -0.04 1.8040160123056677 2.5386214554579123 39.199680847916625 -3 1 1
86 13 10 -0.66 2.9881263216970564 6.879154573225818 41.613773159298404 -3 0 3
2596 397 1 0.09 11.01961783238861 8.060347599927647 29.37423814211954 4 -1 0
3360 524 2 0.42 11.189503622408091 2.375797417733563 30.241278065995008 -2 2 -5
6136 987 1 0.09 3.3425307895764345 6.6066468074547195 30.701392349113537 5 4 1
646 89 6 0.09 1.347359225704449 9.603676472427836 33.983286790573395 -3 0 -4
3190 496 1 0.09 8.456538191720785 4.406469905158138 40.00583599266463 2 1 -5
3359 524 1 0.09 10.530057941908792 3.092143098544467 33.00946828271722 -2 2 -5
3188 496 4 -0.65 9.815315235971307 5.9072080787211645 40.02396120649905 2 1 -5
4837 771 3 -0.04 3.1403491935629217 11.295161414400464 37.65753011163179 0 -3 -3
4839 771 1 0.09 4.145816497428172 11.028925455630826 38.077261179568175 0 -3 -3
805 110 6 0.09 4.15663966647579 7.643226209279063 39.410652162587084 1 -2 0
4518 717 2 0.42 6.737093486144369 1.3257667085480798 34.129542780270455 1 0 -1
4195 664 3 -0.04 1.5197818325929002 6.336986843712504 35.25958812390514 -1 3 1
3208 499 1 0.09 7.33587278772654 2.6412038160920575 38.793036800578406 2 1 -1
3187 496 3 -0.04 8.792639335245314 5.204858513270665 39.33135394511923 2 1 -5
418 57 6 0.09 3.811745458074503 10.182489870074907 41.12068633816851 0 1 -1
4026 635 2 0.42 5.88752351434347 2.528733275011092 30.69127821011672 3 0 -2
93 13 7 0.09 1.5072881572357353 4.710404351826256 41.61606401305681 -3 0 3
4838 771 4 -0.65 2.0646023517340857 11.17431851776016 38.56119726862732 0 -3 -3
3205 499 3 -0.04 6.397220738331799 2.1739543149972937 38.65224938148699 2 1 -1
415 57 8 0.05 3.271239244055437 10.970962411536206 41.73871223046911 0 1 -1
3192 496 2 0.42 9.98919688131255 6.629595816373779 39.36698224966756 2 1 -5
1737 254 1 0.09 9.36370734650883 5.3627878128679205 35.837549145010364 -1 0 0
2493 380 1 0.09 9.044244933506091 10.74927620442195 39.86836607702421 1 -9 -1
1735 254 3 -0.04 8.753344013008068 4.804016036683027 35.10432876292758 -1 0 0
3189 496 1 0.09 9.027399757527675 4.81335184513441 38.31705069767444 2 1 -5
1954 290 1 0.09 6.667087620226314 9.437062897685738 38.6215341011444 3 6 3
4199 664 1 0.09 2.4319784973085294 5.895549898870361 35.58447942687963 -1 3 1
4352 690 4 -0.65 4.425111744746803 2.0188637178923496 41.79828047537096 1 1 -2
1736 254 4 -0.65 7.659463183957407 4.413788560028369 35.91314290854331 -1 0 0
1740 254 2 0.42 7.342970382366932 3.600498732640753 35.50520307399405 -1 0 0
5089 813 3 -0.04 1.8285877229808496 3.8558331634781413 28.933180810351246 1 0 0
3191 496 1 0.09 7.890213087604254 5.8963777439680225 39.13766282658497 2 1 -5
1955 290 1 0.09 6.005734443091662 8.076565241111474 37.54848507190283 3 6 3
231 32 2 0.42 11.172371416152629 8.665716289477162 39.174984795788596 1 4 -3
3609 566 1 0.09 1.8436344946545002 3.3716287819253 38.47997841890662 -3 1 1
1738 254 1 0.09 9.340722295073743 3.981447160613911 34.65635191227948 -1 0 0
1956 290 2 0.42 6.572788616107789 10.75585769047962 36.60801450213982 3 6 3
2491 380 3 -0.04 10.018962908105728 11.051969108246416 40.2561540610222 1 -9 -1
3209 499 1 0.09 5.535919099356232 2.905345399397323 38.36030841165139 2 1 -1
1951 290 3 -0.04 6.531207831299715 9.071818662593913 37.56810508459619 3 6 3